========================================
autoCAS4HE environment loaded (Hortense)
========================================
  Serenity:    /dodrio/scratch/projects/starting_2025_097/autoCAS4HE_built/autoCAS4HE/serenity/build
  autoCAS:     /dodrio/scratch/projects/starting_2025_097/autoCAS4HE_built/autoCAS4HE/autocas_env/bin/scine_autocas
  Basis path:  /dodrio/scratch/projects/starting_2025_097/autoCAS4HE_built/autoCAS4HE/tests/custom_basis:/dodrio/scratch/projects/starting_2025_097/autoCAS4HE_built/autoCAS4HE/serenity/data/basis/
========================================
==============================================
  Po2 Scaling Test: 15 geometries
==============================================
Start time: Fri Jan 30 04:17:07 PM CET 2026
Distances (A): 2.10 2.20 2.40 2.50 2.60 2.80 3.00 3.50 4.00 4.50 5.00 6.00 7.00 8.75 10.00
PBS Job ID: 13138510
Requested mem: 92gb

All 15 .scf.h5 files found.

Running autoCAS with 15 geometries...

Current directory: /dodrio/scratch/projects/starting_2025_097/autoCAS4HE_built/autoCAS4HE/tests/autocas/external_scf/Po2_scaling_test/autocas_project
Final energy evaluation method: DMRGSCF
*******************************************************************************************
*                                                                                         *
*                               Orbital Preparation                                       *
*                                                                                         *
*******************************************************************************************
Found <pymolcas> binary in /readonly/dodrio/apps/RHEL9/zen3-ib/software/OpenMolcas/25.06-iomkl-2023a-DMRG-no-MPI/pymolcas
Preparing initial orbitals
Current directory: /dodrio/scratch/projects/starting_2025_097/autoCAS4HE_built/autoCAS4HE/tests/autocas/external_scf/Po2_scaling_test/autocas_project/initial
Starting initial orbital calculation.

Found <pymolcas> binary in /readonly/dodrio/apps/RHEL9/zen3-ib/software/OpenMolcas/25.06-iomkl-2023a-DMRG-no-MPI/pymolcas
/readonly/dodrio/apps/RHEL9/zen3-ib/software/OpenMolcas/25.06-iomkl-2023a-DMRG-no-MPI/pymolcas -b 1 -f
MOLCAS_PROJECT:  system_0
MOLCAS_MEM:      12000
WorkDir:         /dodrio/scratch/projects/starting_2025_097/autoCAS4HE_built/autoCAS4HE/tests/autocas/external_scf/Po2_scaling_test/autocas_project/scratch
MOLCAS_NPROCS:   
OMP_NUM_THREADS: 
QCMaquis_CPU:    
Molcas log:
   This run of MOLCAS is using the pymolcas driver

                             OPE
                             OPE          NMOL  CASOP  ENMOLC A   SO
                 OPE        NMOLC        AS  OP EN  MO LC     AS  OP
                OPENM       OL CA        SO  PE NM  OL CA     SOP EN
                OP EN      MO   LC       AS  OP ENMOL  CASO   PENMOL
                OP  EN     MO   LC       AS  OP EN     MO     LC ASO
               OP   E  NMOL  C  AS       OP  EN MO     LC     AS  OP
               OP  E   NMO   LC AS        OPEN  MO     LCASOP EN   M
               O  PEN   MO  LCA  SO
            OPE   NMO   L   CAS    OP
        OPENMOL  CASOP     ENMOL   CASOPE
     OPENMOLCA   SOPENMOLCASOPEN   MOLCASOPE
    OPENMOLCAS   OP           EN   MOL    CAS
    OPENMOLCAS       OP  ENM        O     LCA
    OPENMOLCAS    OPEN  MOLCASO     P  E  NMO
    OPENMOLCAS     OP               E  N  MOL
    OPENMOLCA   SO           PENM   O  L  CAS    OPEN    MO    LCAS
    OPENMOLCA   SOP           ENM   O  L  CAS   OP  EN  MOLC  AS   O
    OPENMOLCA   SOPE           NM      O  LCA   S      OP  EN MO
    OPENMOLC                AS         O  PEN   M      OL  CA  SOPE
    OPENMO        LCASOPE  NMOL        C  ASO   P      ENMOLC     AS
    OPE     NMO      LCA  SO     P     E   NM   OL  CA SO  PE N   MO
          OPENMOLCA            SOPE   NMO        LCAS  O    P  ENMO
     OPENMOLCASOPENMOLCASOPENMOLCASOPENMOLCA
        OPENMOLCASOPENMOLCASOPENMOLCASOPE
            OPENMOLCASOPENMOLCASOPENM
               OPENMOLCASOPENMOLCA        version: v25.06 ?
                   OPENMOLCASO
                       OPE                tag:

 OpenMolcas is free software; you can redistribute it and/or modify it
 under the terms of the GNU Lesser General Public License version 2.1.
 OpenMolcas is distributed in the hope that it will be useful, but it
 is provided "as is" and without any express or implied warranties.
 For more details see the full text of the license in the file
 LICENSE or in <http://www.gnu.org/licenses/>.

                 Copyright (C) The OpenMolcas Authors
           For the author list and the recommended citation,
                   consult the file CONTRIBUTORS.md

           *************************************************
           * pymolcas version py2.29                       *
           *   build 637753c454b0e8fef9459a9b878b37a5      *
           *   (after the EMIL interpreter by V. Veryazov) *
           *************************************************

configuration info
------------------
Host name: node5385.dodrio.os (Linux)
C Compiler ID: IntelLLVM
C flags: -O2 -march=core-avx2 -fp-model precise -std=gnu99 -qopenmp
Fortran Compiler ID: Intel
Fortran flags: -O2 -march=core-avx2 -fp-model precise  -fpp -i8 -heap-arrays -qopenmp
Definitions: _MOLCAS_;_I8_;_LINUX_
Parallel: OFF (GA=OFF)


   --------------------------------------------------------------------------------------------------------------------------------------------------------------
  |
  |           Project: system_0
  |    Submitted from: /dodrio/scratch/projects/starting_2025_097/autoCAS4HE_built/autoCAS4HE/tests/autocas/external_scf/Po2_scaling_test/autocas_project/initial
  |      Scratch area: /dodrio/scratch/projects/starting_2025_097/autoCAS4HE_built/autoCAS4HE/tests/autocas/external_scf/Po2_scaling_test/autocas_project/scratch
  |   Save outputs to: /dodrio/scratch/projects/starting_2025_097/autoCAS4HE_built/autoCAS4HE/tests/autocas/external_scf/Po2_scaling_test/autocas_project/initial
  |            Molcas: /readonly/dodrio/apps/RHEL9/zen3-ib/software/OpenMolcas/25.06-iomkl-2023a-DMRG-no-MPI
  |
  | Scratch area is NOT empty
  |
  |    MOLCAS_DRIVER = /readonly/dodrio/apps/RHEL9/zen3-ib/software/OpenMolcas/25.06-iomkl-2023a-DMRG-no-MPI/pymolcas
  |    MOLCAS_MOLDEN = YES
  |    MOLCAS_NPROCS = 1
  |     MOLCAS_PRINT = DEBUG
  |    MOLCAS_SOURCE = /readonly/dodrio/apps/RHEL9/zen3-ib/software/OpenMolcas/25.06-iomkl-2023a-DMRG-no-MPI
  | MOLCAS_STRUCTURE = 0
  |   MOLCAS_THREADS = 1
  |
   --------------------------------------------------------------------------------------------------------------------------------------------------------------

++ ---------   Input file   ---------

&GATEWAY
  COORD = /dodrio/scratch/projects/starting_2025_097/autoCAS4HE_built/autoCAS4HE/tests/autocas/external_scf/Po2_scaling_test/po2_000.xyz
  BASIS = ANO-RCC-VDZP
  GROUP = C1

&SEWARD
  CHOLesky

&SCF
  SPIN   = 1
  CHARGE = 0
  CHOLesky

-- ----------------------------------

*** symbolic link created: INPORB -> system_0.RasOrb
--- Start Module: gateway at Fri Jan 30 16:17:45 2026 ---
 
()()()()()()()()()()()()()()()()()()()()()()()()()()()()()()()()()()()()()()()()()()()()()()()()()()

                                              &GATEWAY

                                   only a single process is used
                        available to each process: 12 GB of memory, 1 thread
                                            pid: 1066191
()()()()()()()()()()()()()()()()()()()()()()()()()()()()()()()()()()()()()()()()()()()()()()()()()()
 
 
 
 Basis Set     1 Label: PO.ANO-RCC-VDZP
 Basis set is read from library:basis_library 
 Basis Set Reference(s):
     B.O. Roos, R. Lindh, P.-A. Malmqvist, V. Veryazov, P.-O. Widmark. J. Phys. Chem. A 108 (2004) 2851-2858. doi:10.1021/jp031064+
     POLONIUM (25s,22p,16d,12f,4g) -> [11s,10p,9d,6f,4g]
 
 
 
  Weights used for alignment and distance                     
  mat. size =     2x    1
      208.9824308000000030
      208.9824308000000030
 
 
++    Symmetry information:
      ---------------------
 
                    Character Table for C1 
 
                             E  
                    a        1  x, y, xy, Rz, z, xz, Ry, yz, Rx, I
--
 
 
++    Basis set information:
      ----------------------
 
 
      Basis set label: PO.ANO-RCC...7S6P4D2F1G.
 
      Electronic valence basis set:
      ------------------
      Associated Effective Charge  84.000000 au
      Associated Actual Charge     84.000000 au
      Nuclear Model: Point charge
 
      Shell  nPrim  nBasis  Cartesian Spherical Contaminant
         s      25       7        X                  
         p      22       6        X                  
         d      16       4                 X         
         f      12       2                 X         
         g       4       1                 X         
 
       Label   Cartesian Coordinates / bohr
 
 PO1               -1.9842124322        0.0000000000        0.0000000000
 PO2                1.9842124322        0.0000000000        0.0000000000
--
 
 
++    Molecular structure info:
      -------------------------
 
                    ************************************************ 
                    **** Cartesian Coordinates / bohr, angstrom **** 
                    ************************************************ 
 
     Center  Label                x              y              z                     x              y              z
        1      PO1             -1.984212       0.000000       0.000000             -1.050000       0.000000       0.000000
        2      PO2              1.984212       0.000000       0.000000              1.050000       0.000000       0.000000
--
 
 
++    Isotope specification:
      ----------------------
 
 Center
 Type   Z    A    mass (Da)
 --------------------------
    1  84  209   208.982431
--
 
 
++    Rigid rotor info:
      -----------------
 
 
                    Total mass (a) : 417.96486
 
                    Center of mass 
                          X          Y   
                       0.00000    0.00000    0.00000
 
                    Reference system based on center of mass
                    Coordinates and Masses of Atoms, in au and A
                          X          Y          Z        Mass
                      -1.98421    0.00000    0.00000  208.98243
                       1.98421    0.00000    0.00000  208.98243
 
                    The Moment of Inertia Tensor / au
                                     X          Y        Z     
                    X             5.7243E-11
                    Y             0.0000E+00 2.9997E+06
                    Z             0.0000E+00 0.0000E+00 2.9997E+06
 
 
  Pax                                                         
  mat. size =     3x    3
        1.0000000000000000      0.0000000000000000      0.0000000000000000
        0.0000000000000000      1.0000000000000000      0.0000000000000000
        0.0000000000000000      0.0000000000000000      1.0000000000000000
                    The Principal Axes and Moments of Inertia (au)
                    Eigenvalues : 2.9997E+06 2.9997E+06 0.0000E+00
                                     X'         Y'       Z'    
                    Eigenvectors:
                    X             0.0000E+00 0.0000E+00 1.0000E+00
                    Y             1.0000E+00 0.0000E+00 0.0000E+00
                    Z             0.0000E+00 1.0000E+00 0.0000E+00
 
                    The Rotational Constants
                            (cm-1)            (GHz)
                              0.037            1.097
                              0.037            1.097
 
 
                    *******************************************
                    *                                         *
                    * R I G I D - R O T O R   A N A L Y S I S *
                    *                                         *
                    *******************************************
 
                    j(Max):  5
 
                    Rotor Type: Linear Rotor
                    Asymmetry parameter: -1.000
                    Prolate = -1
                    Oblate  =  1
 
 
                    Rotational energies / cm-1
 
                    E(J= 0) =    0.000
 
                    E(J= 1) =    0.073
 
                    E(J= 2) =    0.219
 
                    E(J= 3) =    0.439
 
                    E(J= 4) =    0.732
 
                    E(J= 5) =    1.097
--
 
 
++    Primitive basis info:
      ---------------------
 
 
                    *****************************************************
                    ******** Primitive Basis Functions (Valence) ********
                    *****************************************************
 
 
 Basis set:PO.ANO-RCC...7S6P4D2F1G.                                                        
 
                  Type         
                   s
           No.      Exponent    Contraction Coefficients
            1  5.449886210E+07   0.001372  -0.000545   0.000263  -0.000134   0.000061  -0.000022   0.000029
            2  1.309612090E+07   0.001655  -0.000659   0.000318  -0.000162   0.000074  -0.000027   0.000035
            3  3.878386940E+06   0.004355  -0.001738   0.000840  -0.000426   0.000196  -0.000071   0.000093
            4  1.248126680E+06   0.007628  -0.003059   0.001479  -0.000751   0.000345  -0.000126   0.000164
            5  4.308857500E+05   0.015370  -0.006206   0.003004  -0.001526   0.000701  -0.000256   0.000333
            6  1.569159280E+05   0.028094  -0.011488   0.005573  -0.002832   0.001301  -0.000475   0.000619
            7  5.987864890E+04   0.052832  -0.022033   0.010725  -0.005453   0.002507  -0.000915   0.001189
            8  2.371398000E+04   0.096445  -0.041611   0.020368  -0.010378   0.004770  -0.001740   0.002273
            9  9.664090770E+03   0.172969  -0.078960   0.039057  -0.019927   0.009174  -0.003352   0.004342
           10  4.042681300E+03   0.276518  -0.139525   0.070244  -0.036074   0.016600  -0.006054   0.007948
           11  1.740536270E+03   0.332765  -0.195104   0.101327  -0.052237   0.024157  -0.008846   0.011337
           12  7.714290540E+02   0.207520  -0.100108   0.048465  -0.024974   0.011335  -0.004077   0.005828
           13  3.509046200E+02   0.033460   0.324239  -0.257708   0.149371  -0.070445   0.025710  -0.035082
           14  1.662260150E+02   0.001274   0.597476  -0.633726   0.391200  -0.190493   0.070723  -0.088761
           15  8.123101390E+01  -0.001023   0.229632  -0.120435   0.073075  -0.031957   0.010576  -0.023102
           16  4.069936800E+01   0.000845   0.011176   0.875754  -1.007843   0.564316  -0.212203   0.305398
           17  2.034905250E+01  -0.000639   0.000346   0.454578  -0.545544   0.337843  -0.136631   0.135306
           18  1.004866100E+01   0.000415  -0.000070   0.016906   1.039372  -0.968782   0.419716  -0.512671
           19  4.919576700E+00  -0.000227  -0.000155   0.006194   0.569226  -0.766253   0.346614  -0.644020
           20  2.213117740E+00   0.000110   0.000103  -0.002707   0.008495   1.057822  -0.667287   1.621686
           21  9.608370900E-01  -0.000051  -0.000045   0.001105   0.006564   0.592168  -0.606242  -0.086453
           22  3.725348200E-01   0.000022   0.000021  -0.000495  -0.002588  -0.012320   0.727524  -1.767929
           23  1.318544300E-01  -0.000011  -0.000011   0.000249   0.001277   0.013187   0.695013   0.798028
           24  5.274177000E-02   0.000006   0.000006  -0.000128  -0.000669  -0.006818  -0.006153   0.537905
           25  2.109670000E-02  -0.000002  -0.000002   0.000038   0.000199   0.002057   0.016983   0.118563
 
                  Type         
                   p
           No.      Exponent    Contraction Coefficients
           26  2.004599670E+07   0.000036  -0.000019   0.000009  -0.000004   0.000001  -0.000002
           27  3.786356900E+06   0.000092  -0.000048   0.000024  -0.000010   0.000003  -0.000005
           28  8.903308880E+05   0.000265  -0.000138   0.000070  -0.000030   0.000009  -0.000013
           29  2.404348700E+05   0.000719  -0.000376   0.000191  -0.000083   0.000025  -0.000036
           30  7.229226460E+04   0.002009  -0.001055   0.000535  -0.000232   0.000069  -0.000103
           31  2.385278250E+04   0.005725  -0.003024   0.001537  -0.000669   0.000198  -0.000293
           32  8.590617060E+03   0.016546  -0.008837   0.004504  -0.001955   0.000580  -0.000868
           33  3.360337110E+03   0.046986  -0.025510   0.013058  -0.005696   0.001686  -0.002490
           34  1.413273460E+03   0.122805  -0.068857   0.035515  -0.015439   0.004585  -0.006890
           35  6.301800150E+02   0.263698  -0.154584   0.080705  -0.035431   0.010488  -0.015402
           36  2.941769660E+02   0.386429  -0.236366   0.124663  -0.054223   0.016158  -0.024657
           37  1.421068570E+02   0.289230  -0.087631   0.029034  -0.011884   0.003254  -0.003229
           38  6.887919950E+01   0.070671   0.405405  -0.329155   0.162092  -0.048443   0.068662
           39  3.473946720E+01   0.000362   0.555391  -0.465730   0.219227  -0.067174   0.110209
           40  1.739252360E+01   0.000926   0.167515   0.256050  -0.178579   0.059798  -0.111742
           41  8.586781540E+00  -0.000575   0.007511   0.732992  -0.583333   0.185980  -0.254805
           42  4.183036740E+00   0.000242   0.000664   0.249760   0.033435  -0.018440  -0.021540
           43  1.882156340E+00  -0.000099  -0.000261   0.008476   0.778081  -0.366193   0.844081
           44  8.255012700E-01   0.000042   0.000039   0.001165   0.353880  -0.091689  -0.484751
           45  2.553136800E-01  -0.000013  -0.000015  -0.000321   0.015645   0.643100  -0.860964
           46  8.323531000E-02   0.000006   0.000008   0.000133  -0.001016   0.487752   0.696574
           47  3.329412000E-02  -0.000002  -0.000003  -0.000054   0.000445   0.032674   0.420368
 
                  Type         
                   d
           No.      Exponent    Contraction Coefficients
           48  9.664090770E+03   0.000382  -0.000205   0.000076  -0.000051
           49  4.042681300E+03   0.001085  -0.000580   0.000212  -0.000143
           50  1.740536270E+03   0.005379  -0.002910   0.001087  -0.000723
           51  7.714290540E+02   0.022329  -0.012107   0.004459  -0.003003
           52  3.509046200E+02   0.080636  -0.044594   0.016679  -0.011135
           53  1.662260150E+02   0.215630  -0.120756   0.044800  -0.030210
           54  8.123101390E+01   0.380175  -0.209202   0.078452  -0.052088
           55  4.069936800E+01   0.361781  -0.127098   0.038199  -0.025173
           56  2.034905250E+01   0.137645   0.264650  -0.129018   0.094536
           57  1.004866100E+01   0.012690   0.536895  -0.260948   0.174847
           58  4.919576700E+00   0.001035   0.308465  -0.025794   0.002722
           59  2.213117740E+00  -0.000252   0.042871   0.455881  -0.464563
           60  9.608370900E-01   0.000131  -0.001050   0.523945  -0.174190
           61  3.725348200E-01  -0.000060   0.000571   0.177569   0.626021
           62  1.490139200E-01   0.000029  -0.000287   0.000864   0.442169
           63  5.960556000E-02  -0.000010   0.000090   0.003931   0.068945
 
                  Type         
                   f
           No.      Exponent    Contraction Coefficients
           64  6.301800150E+02   0.001210  -0.000416
           65  2.941769660E+02   0.004603  -0.001622
           66  1.421068570E+02   0.024199  -0.008382
           67  6.887919950E+01   0.080867  -0.028275
           68  3.473946720E+01   0.200382  -0.071077
           69  1.739252360E+01   0.341928  -0.126936
           70  8.586781540E+00   0.366591  -0.125620
           71  4.183036740E+00   0.229261   0.031815
           72  1.882156340E+00   0.064227   0.544244
           73  7.528625300E-01   0.002061   0.478125
           74  3.011450100E-01   0.000674   0.097675
           75  1.204580000E-01  -0.000239   0.029294
 
                  Type         
                   g
           No.      Exponent    Contraction Coefficients
           76  1.767416000E+00   0.666694
           77  7.069664000E-01   0.385204
           78  2.827865000E-01   0.146884
           79  1.131146000E-01   0.004997
 
  Number of primitives                                   582
  Number of basis functions                              136
 
--
 
 
++    SO/AO info:
      -----------
 
                    **************************************************
                    ********** Petite list Basis Functions ***********
                    **************************************************
 
 
           Basis functions generated by E  
 
 Basis Label        Type   Center
    1  PO1           1s       1
    2  PO1           2s       1
    3  PO1           3s       1
    4  PO1           4s       1
    5  PO1           5s       1
    6  PO1           6s       1
    7  PO1           7s       1
    8  PO1           2px      1
    9  PO1           3px      1
   10  PO1           4px      1
   11  PO1           5px      1
   12  PO1           6px      1
   13  PO1           7px      1
   14  PO1           2py      1
   15  PO1           3py      1
   16  PO1           4py      1
   17  PO1           5py      1
   18  PO1           6py      1
   19  PO1           7py      1
   20  PO1           2pz      1
   21  PO1           3pz      1
   22  PO1           4pz      1
   23  PO1           5pz      1
   24  PO1           6pz      1
   25  PO1           7pz      1
   26  PO1           3d2-     1
   27  PO1           4d2-     1
   28  PO1           5d2-     1
   29  PO1           6d2-     1
   30  PO1           3d1-     1
   31  PO1           4d1-     1
   32  PO1           5d1-     1
   33  PO1           6d1-     1
   34  PO1           3d0      1
   35  PO1           4d0      1
   36  PO1           5d0      1
   37  PO1           6d0      1
   38  PO1           3d1+     1
   39  PO1           4d1+     1
   40  PO1           5d1+     1
   41  PO1           6d1+     1
   42  PO1           3d2+     1
   43  PO1           4d2+     1
   44  PO1           5d2+     1
   45  PO1           6d2+     1
   46  PO1           4f3-     1
   47  PO1           5f3-     1
   48  PO1           4f2-     1
   49  PO1           5f2-     1
   50  PO1           4f1-     1
   51  PO1           5f1-     1
   52  PO1           4f0      1
   53  PO1           5f0      1
   54  PO1           4f1+     1
   55  PO1           5f1+     1
   56  PO1           4f2+     1
   57  PO1           5f2+     1
   58  PO1           4f3+     1
   59  PO1           5f3+     1
   60  PO1           5g4-     1
   61  PO1           5g3-     1
   62  PO1           5g2-     1
   63  PO1           5g1-     1
   64  PO1           5g0      1
   65  PO1           5g1+     1
   66  PO1           5g2+     1
   67  PO1           5g3+     1
   68  PO1           5g4+     1
   69  PO2           1s       2
   70  PO2           2s       2
   71  PO2           3s       2
   72  PO2           4s       2
   73  PO2           5s       2
   74  PO2           6s       2
   75  PO2           7s       2
   76  PO2           2px      2
   77  PO2           3px      2
   78  PO2           4px      2
   79  PO2           5px      2
   80  PO2           6px      2
   81  PO2           7px      2
   82  PO2           2py      2
   83  PO2           3py      2
   84  PO2           4py      2
   85  PO2           5py      2
   86  PO2           6py      2
   87  PO2           7py      2
   88  PO2           2pz      2
   89  PO2           3pz      2
   90  PO2           4pz      2
   91  PO2           5pz      2
   92  PO2           6pz      2
   93  PO2           7pz      2
   94  PO2           3d2-     2
   95  PO2           4d2-     2
   96  PO2           5d2-     2
   97  PO2           6d2-     2
   98  PO2           3d1-     2
   99  PO2           4d1-     2
  100  PO2           5d1-     2
  101  PO2           6d1-     2
  102  PO2           3d0      2
  103  PO2           4d0      2
  104  PO2           5d0      2
  105  PO2           6d0      2
  106  PO2           3d1+     2
  107  PO2           4d1+     2
  108  PO2           5d1+     2
  109  PO2           6d1+     2
  110  PO2           3d2+     2
  111  PO2           4d2+     2
  112  PO2           5d2+     2
  113  PO2           6d2+     2
  114  PO2           4f3-     2
  115  PO2           5f3-     2
  116  PO2           4f2-     2
  117  PO2           5f2-     2
  118  PO2           4f1-     2
  119  PO2           5f1-     2
  120  PO2           4f0      2
  121  PO2           5f0      2
  122  PO2           4f1+     2
  123  PO2           5f1+     2
  124  PO2           4f2+     2
  125  PO2           5f2+     2
  126  PO2           4f3+     2
  127  PO2           5f3+     2
  128  PO2           5g4-     2
  129  PO2           5g3-     2
  130  PO2           5g2-     2
  131  PO2           5g1-     2
  132  PO2           5g0      2
  133  PO2           5g1+     2
  134  PO2           5g2+     2
  135  PO2           5g3+     2
  136  PO2           5g4+     2
 
      Basis set specifications :
      Symmetry species        a  
      Basis functions         136
--
 
 
            Nuclear Potential Energy           1778.03542743 au
 
--- Stop Module: gateway at Fri Jan 30 16:17:49 2026 /rc=_RC_ALL_IS_WELL_ ---
*** files: xmldump
    saved to directory /dodrio/scratch/projects/starting_2025_097/autoCAS4HE_built/autoCAS4HE/tests/autocas/external_scf/Po2_scaling_test/autocas_project/initial
--- Module gateway spent 4 seconds ---

*** symbolic link created: INPORB -> system_0.RasOrb
--- Start Module: seward at Fri Jan 30 16:17:50 2026 ---
 
()()()()()()()()()()()()()()()()()()()()()()()()()()()()()()()()()()()()()()()()()()()()()()()()()()

                                              &SEWARD

                                   only a single process is used
                        available to each process: 12 GB of memory, 1 thread
                                            pid: 1066200
()()()()()()()()()()()()()()()()()()()()()()()()()()()()()()()()()()()()()()()()()()()()()()()()()()
 
 
  Weights used for alignment and distance                     
  mat. size =     2x    1
      208.9824308000000030
      208.9824308000000030
 
               SEWARD will generate:
                  Multipole Moment integrals up to order  2
                  Kinetic Energy integrals
                  Nuclear Attraction integrals (point charge)
                  One-Electron Hamiltonian integrals
                  Velocity integrals
                  Relativistic Douglas-Kroll-Hess integrals:
                    - Parametrization         : EXP
                    - DKH order of Hamiltonian: 2
                    - DKH order of Properties : 0
                         - multipole moment operators
                         - electric potential operators
                         - contact operators
                  Orbital angular momentum around (  0.0000   0.0000   0.0000 )
                  Velocity quadrupole around (  0.0000   0.0000   0.0000 )
                  Atomic mean-field integrals
                  Cholesky decomposed two-electron repulsion integrals
                   - CD Threshold:   1.00E-04
 
                   Integrals are discarded if absolute value <: 1.00E-40
                   Integral cutoff threshold is set to       <: 1.00E-40
 
++    SO/AO info:
      -----------
 
                    **************************************************
                    ********** Petite list Basis Functions ***********
                    **************************************************
 
 
           Basis functions generated by E  
 
 Basis Label        Type   Center
    1  PO1           1s       1
    2  PO1           2s       1
    3  PO1           3s       1
    4  PO1           4s       1
    5  PO1           5s       1
    6  PO1           6s       1
    7  PO1           7s       1
    8  PO1           2px      1
    9  PO1           3px      1
   10  PO1           4px      1
   11  PO1           5px      1
   12  PO1           6px      1
   13  PO1           7px      1
   14  PO1           2py      1
   15  PO1           3py      1
   16  PO1           4py      1
   17  PO1           5py      1
   18  PO1           6py      1
   19  PO1           7py      1
   20  PO1           2pz      1
   21  PO1           3pz      1
   22  PO1           4pz      1
   23  PO1           5pz      1
   24  PO1           6pz      1
   25  PO1           7pz      1
   26  PO1           3d2-     1
   27  PO1           4d2-     1
   28  PO1           5d2-     1
   29  PO1           6d2-     1
   30  PO1           3d1-     1
   31  PO1           4d1-     1
   32  PO1           5d1-     1
   33  PO1           6d1-     1
   34  PO1           3d0      1
   35  PO1           4d0      1
   36  PO1           5d0      1
   37  PO1           6d0      1
   38  PO1           3d1+     1
   39  PO1           4d1+     1
   40  PO1           5d1+     1
   41  PO1           6d1+     1
   42  PO1           3d2+     1
   43  PO1           4d2+     1
   44  PO1           5d2+     1
   45  PO1           6d2+     1
   46  PO1           4f3-     1
   47  PO1           5f3-     1
   48  PO1           4f2-     1
   49  PO1           5f2-     1
   50  PO1           4f1-     1
   51  PO1           5f1-     1
   52  PO1           4f0      1
   53  PO1           5f0      1
   54  PO1           4f1+     1
   55  PO1           5f1+     1
   56  PO1           4f2+     1
   57  PO1           5f2+     1
   58  PO1           4f3+     1
   59  PO1           5f3+     1
   60  PO1           5g4-     1
   61  PO1           5g3-     1
   62  PO1           5g2-     1
   63  PO1           5g1-     1
   64  PO1           5g0      1
   65  PO1           5g1+     1
   66  PO1           5g2+     1
   67  PO1           5g3+     1
   68  PO1           5g4+     1
   69  PO2           1s       2
   70  PO2           2s       2
   71  PO2           3s       2
   72  PO2           4s       2
   73  PO2           5s       2
   74  PO2           6s       2
   75  PO2           7s       2
   76  PO2           2px      2
   77  PO2           3px      2
   78  PO2           4px      2
   79  PO2           5px      2
   80  PO2           6px      2
   81  PO2           7px      2
   82  PO2           2py      2
   83  PO2           3py      2
   84  PO2           4py      2
   85  PO2           5py      2
   86  PO2           6py      2
   87  PO2           7py      2
   88  PO2           2pz      2
   89  PO2           3pz      2
   90  PO2           4pz      2
   91  PO2           5pz      2
   92  PO2           6pz      2
   93  PO2           7pz      2
   94  PO2           3d2-     2
   95  PO2           4d2-     2
   96  PO2           5d2-     2
   97  PO2           6d2-     2
   98  PO2           3d1-     2
   99  PO2           4d1-     2
  100  PO2           5d1-     2
  101  PO2           6d1-     2
  102  PO2           3d0      2
  103  PO2           4d0      2
  104  PO2           5d0      2
  105  PO2           6d0      2
  106  PO2           3d1+     2
  107  PO2           4d1+     2
  108  PO2           5d1+     2
  109  PO2           6d1+     2
  110  PO2           3d2+     2
  111  PO2           4d2+     2
  112  PO2           5d2+     2
  113  PO2           6d2+     2
  114  PO2           4f3-     2
  115  PO2           5f3-     2
  116  PO2           4f2-     2
  117  PO2           5f2-     2
  118  PO2           4f1-     2
  119  PO2           5f1-     2
  120  PO2           4f0      2
  121  PO2           5f0      2
  122  PO2           4f1+     2
  123  PO2           5f1+     2
  124  PO2           4f2+     2
  125  PO2           5f2+     2
  126  PO2           4f3+     2
  127  PO2           5f3+     2
  128  PO2           5g4-     2
  129  PO2           5g3-     2
  130  PO2           5g2-     2
  131  PO2           5g1-     2
  132  PO2           5g0      2
  133  PO2           5g1+     2
  134  PO2           5g2+     2
  135  PO2           5g3+     2
  136  PO2           5g4+     2
 
      Basis set specifications :
      Symmetry species        a  
      Basis functions         136
--
 
 
            Nuclear Potential Energy           1778.03542743 au
 
 
      Basis set specifications :
      Symmetry species         a  
      Basis functions          136
 
  SO-integrals were calculated for Po: [Xe+4f^14+5d^10]6s^2 6p^4 
  SO-integrals were calculated for Po: [Xe+4f^14+5d^10]6s^2 6p^4 


********************************************************************************
*                                                                              *
*          Cholesky Decomposition of Two-Electron Repulsion Integrals          *
*                                                                              *
********************************************************************************
 
 


  Configuration
  =============
Decomposition algorithm                   : par one-step
1-center decomposition                    :           No
Decomposition threshold                   :   1.0000E-04
Initial diagonal prescreening             :   1.0000E-14
Initial diagonal screening                :   0.0000E+00
First  screening damping                  :   1.0000E+05 (screening on) 
Second screening damping                  :   1.0000E+05 (screening on) 
Absolute values used in diagonal screening:           No
Threshold for negative  diagonal zeroing  :  -1.0000E-40
Threshold for warning about neg. diagonal :  -1.0000E-10
Threshold for too negative diagonal       :  -1.0000E-08
Span factor                               :   1.0000E-02
Max. #Cholesky vectors per symmetry       :         2720
Max. #reduced sets (i.e., integral passes):         2720
Min. #qualified required for decomposition:           50
Max. #qualified per symmetry              :          100
Max. memory fraction for qualified columns:      33.3333%
Max. #shell pair allowed per integral pass:            1
Qualification algorithm                   :      sorting
Algorithm for Cholesky vector I/O         : lrgbuf/rs2rs
Address mode for Cholesky vector I/O      :    word addr.
Memory fraction used as vector buffer     :      35.0000%


  Information from CHO_INIT
  =========================

  Number of irreps        :          1
  Number of SOs           :        136
  Number of shells        :         10
  Number of shell pairs   :         55
  Contributing shell pairs:         55
  Max. shell dimension    :         20
  Max. shell pair dim.    :        400



***** Cholesky initialization completed *****
Total CPU  time:       0 hours  0 minutes   5.89 seconds
Total wall time:       0 hours  0 minutes   6.04 seconds



***** Starting Cholesky diagonal setup *****


  Histogram of Diagonal Elements
  ==============================

 Larger than             1.0000E+02:           0    0.00%   Accumulated:    0.00%
 Between  1.0000E+02 and  1.0000E+01:          10    0.11%   Accumulated:    0.11%
 Between  1.0000E+01 and  1.0000E+00:          78    0.86%   Accumulated:    0.97%
 Between  1.0000E+00 and  1.0000E-01:         470    5.15%   Accumulated:    6.12%
 Between  1.0000E-01 and  1.0000E-02:        1721   18.87%   Accumulated:   24.99%
 Between  1.0000E-02 and  1.0000E-03:        2347   25.74%   Accumulated:   50.73%
 Between  1.0000E-03 and  1.0000E-04:        1148   12.59%   Accumulated:   63.33%
 Between  1.0000E-04 and  1.0000E-05:         586    6.43%   Accumulated:   69.75%
 Between  1.0000E-05 and  1.0000E-06:         597    6.55%   Accumulated:   76.30%
 Between  1.0000E-06 and  1.0000E-07:         447    4.90%   Accumulated:   81.20%
 Between  1.0000E-07 and  1.0000E-08:         332    3.64%   Accumulated:   84.84%
 Between  1.0000E-08 and  1.0000E-09:         214    2.35%   Accumulated:   87.19%
 Between  1.0000E-09 and  1.0000E-10:         264    2.90%   Accumulated:   90.09%
 Between  1.0000E-10 and  1.0000E-11:         200    2.19%   Accumulated:   92.28%
 Between  1.0000E-11 and  1.0000E-12:         228    2.50%   Accumulated:   94.78%
 Between  1.0000E-12 and  1.0000E-13:         208    2.28%   Accumulated:   97.06%
 Between  1.0000E-13 and  1.0000E-14:         149    1.63%   Accumulated:   98.69%
 Between  1.0000E-14 and  1.0000E-15:         119    1.31%   Accumulated:  100.00%
 Smaller than            1.0000E-15:           0    0.00%   Accumulated:  100.00%

 Number of elements exactly 0.0   :           0    0.00%
 Number of negative elements      :           0    0.00%

 Converged  :       3344
 Unconverged:       5774

 Total number of zeroed negative diagonals:               0

 Minimum diagonal:    1.572900E-15
 Maximum diagonal:    6.635446E+01
 Mean value      :    7.708848E-02
 Mean abs. value :    7.708848E-02
 Biased variance :    1.137233E+00
 Standard dev.   :    1.137296E+00 (unbiased variance)


  Reduced Set Information
  =======================

Sym.          Full   First Red. Set
-----------------------------------
  1         9316.0             9118
-----------------------------------
Total:      9316.0             9118
-----------------------------------

First Reduced Set:        55 of        55 shell pairs contribute ( 100.00%)



***** Cholesky diagonal setup completed *****
Total CPU  time:       0 hours  0 minutes   5.92 seconds
Total wall time:       0 hours  0 minutes   6.14 seconds



***** Starting Cholesky decomposition *****


  Size of Cholesky vector buffer
  ------------------------------
 
Dimension, sym. 1:   24800960 8-byte words (  189.22 Mb)

Total dimension  :   24800960 8-byte words (  189.22 Mb)


  Integral Pass      1
  ********************

Number of shell pair distributions calculated:   1
#Cholesky vec.:        0
#vec. in buff.:        0
#qualified    :        6
#vec. gener.  :        4


  Histogram of Diagonal Elements
  ==============================

 Larger than             1.0000E+02:           0    0.00%   Accumulated:    0.00%
 Between  1.0000E+02 and  1.0000E+01:           5    0.05%   Accumulated:    0.05%
 Between  1.0000E+01 and  1.0000E+00:          48    0.53%   Accumulated:    0.58%
 Between  1.0000E+00 and  1.0000E-01:         491    5.38%   Accumulated:    5.97%
 Between  1.0000E-01 and  1.0000E-02:        1702   18.67%   Accumulated:   24.63%
 Between  1.0000E-02 and  1.0000E-03:        2334   25.60%   Accumulated:   50.23%
 Between  1.0000E-03 and  1.0000E-04:        1165   12.78%   Accumulated:   63.01%
 Between  1.0000E-04 and  1.0000E-05:         575    6.31%   Accumulated:   69.31%
 Between  1.0000E-05 and  1.0000E-06:         598    6.56%   Accumulated:   75.87%
 Smaller than            1.0000E-06:        2200   24.13%   Accumulated:  100.00%

 Number of elements exactly 0.0   :           4    0.04%
 Number of negative elements      :           0    0.00%

 Converged  :       3373
 Unconverged:       5745

 Total number of zeroed negative diagonals:               0

 Minimum diagonal:    0.000000E+00
 Maximum diagonal:    6.629429E+01
 Mean value      :    5.082976E-02
 Mean abs. value :    5.082976E-02
 Biased variance :    8.067501E-01
 Standard dev.   :    8.067944E-01 (unbiased variance)


  Reduced Set Information
  =======================

                          Reduced Set
Sym.          Full      First    Current
----------------------------------------
  1         9316.0       9118       9114
----------------------------------------
Total:      9316.0       9118       9114
----------------------------------------

First Reduced Set:        55 of        55 shell pairs contribute ( 100.00%)
Curr. Reduced Set:        55 of        55 shell pairs contribute ( 100.00%)

Overall timings for integral pass      1 (CPU/Wall in seconds):
Integrals (incl. qualified I/O etc.):         0.69         0.73
Decomposition of qualified columns  :         0.00         0.02
Total (incl. restart info I/O etc.) :         0.69         1.11


  Integral Pass      2
  ********************

Number of shell pair distributions calculated:   1
#Cholesky vec.:        4
#vec. in buff.:        4
#qualified    :        6
#vec. gener.  :        6


  Histogram of Diagonal Elements
  ==============================

 Larger than             1.0000E+02:           0    0.00%   Accumulated:    0.00%
 Between  1.0000E+02 and  1.0000E+01:           0    0.00%   Accumulated:    0.00%
 Between  1.0000E+01 and  1.0000E+00:          24    0.26%   Accumulated:    0.26%
 Between  1.0000E+00 and  1.0000E-01:         482    5.29%   Accumulated:    5.55%
 Between  1.0000E-01 and  1.0000E-02:        1687   18.50%   Accumulated:   24.05%
 Between  1.0000E-02 and  1.0000E-03:        2342   25.69%   Accumulated:   49.74%
 Between  1.0000E-03 and  1.0000E-04:        1171   12.84%   Accumulated:   62.58%
 Between  1.0000E-04 and  1.0000E-05:         560    6.14%   Accumulated:   68.72%
 Between  1.0000E-05 and  1.0000E-06:         607    6.66%   Accumulated:   75.38%
 Smaller than            1.0000E-06:        2245   24.62%   Accumulated:  100.00%

 Number of elements exactly 0.0   :          10    0.11%
 Number of negative elements      :           0    0.00%

 Converged  :       3412
 Unconverged:       5706

 Total number of zeroed negative diagonals:               0

 Minimum diagonal:    0.000000E+00
 Maximum diagonal:    2.719733E+00
 Mean value      :    2.461759E-02
 Mean abs. value :    2.461759E-02
 Biased variance :    1.129886E-01
 Standard dev.   :    1.129948E-01 (unbiased variance)


  Reduced Set Information
  =======================

                          Reduced Set
Sym.          Full      First    Current
----------------------------------------
  1         9316.0       9118       9108
----------------------------------------
Total:      9316.0       9118       9108
----------------------------------------

First Reduced Set:        55 of        55 shell pairs contribute ( 100.00%)
Curr. Reduced Set:        55 of        55 shell pairs contribute ( 100.00%)

Overall timings for integral pass      2 (CPU/Wall in seconds):
Integrals (incl. qualified I/O etc.):         0.69         0.70
Decomposition of qualified columns  :         0.00         0.01
Total (incl. restart info I/O etc.) :         0.69         0.74


  Integral Pass      3
  ********************

Number of shell pair distributions calculated:   1
#Cholesky vec.:       10
#vec. in buff.:       10
#qualified    :       54
#vec. gener.  :       21


  Histogram of Diagonal Elements
  ==============================

 Larger than             1.0000E+02:           0    0.00%   Accumulated:    0.00%
 Between  1.0000E+02 and  1.0000E+01:           0    0.00%   Accumulated:    0.00%
 Between  1.0000E+01 and  1.0000E+00:          15    0.16%   Accumulated:    0.16%
 Between  1.0000E+00 and  1.0000E-01:         396    4.34%   Accumulated:    4.51%
 Between  1.0000E-01 and  1.0000E-02:        1573   17.25%   Accumulated:   21.76%
 Between  1.0000E-02 and  1.0000E-03:        2382   26.12%   Accumulated:   47.88%
 Between  1.0000E-03 and  1.0000E-04:        1212   13.29%   Accumulated:   61.18%
 Between  1.0000E-04 and  1.0000E-05:         547    6.00%   Accumulated:   67.17%
 Between  1.0000E-05 and  1.0000E-06:         635    6.96%   Accumulated:   74.14%
 Smaller than            1.0000E-06:        2358   25.86%   Accumulated:  100.00%

 Number of elements exactly 0.0   :          31    0.34%
 Number of negative elements      :           0    0.00%

 Converged  :       3540
 Unconverged:       5578

 Total number of zeroed negative diagonals:               0

 Minimum diagonal:    0.000000E+00
 Maximum diagonal:    2.719726E+00
 Mean value      :    1.933911E-02
 Mean abs. value :    1.933911E-02
 Biased variance :    9.020582E-02
 Standard dev.   :    9.021077E-02 (unbiased variance)


  Reduced Set Information
  =======================

                          Reduced Set
Sym.          Full      First    Current
----------------------------------------
  1         9316.0       9118       9087
----------------------------------------
Total:      9316.0       9118       9087
----------------------------------------

First Reduced Set:        55 of        55 shell pairs contribute ( 100.00%)
Curr. Reduced Set:        55 of        55 shell pairs contribute ( 100.00%)

Overall timings for integral pass      3 (CPU/Wall in seconds):
Integrals (incl. qualified I/O etc.):         1.60         1.66
Decomposition of qualified columns  :         0.01         0.04
Total (incl. restart info I/O etc.) :         1.61         1.71


  Integral Pass      4
  ********************

Number of shell pair distributions calculated:   1
#Cholesky vec.:       31
#vec. in buff.:       31
#qualified    :       53
#vec. gener.  :       24


  Histogram of Diagonal Elements
  ==============================

 Larger than             1.0000E+02:           0    0.00%   Accumulated:    0.00%
 Between  1.0000E+02 and  1.0000E+01:           0    0.00%   Accumulated:    0.00%
 Between  1.0000E+01 and  1.0000E+00:           6    0.07%   Accumulated:    0.07%
 Between  1.0000E+00 and  1.0000E-01:         305    3.35%   Accumulated:    3.41%
 Between  1.0000E-01 and  1.0000E-02:        1458   15.99%   Accumulated:   19.40%
 Between  1.0000E-02 and  1.0000E-03:        2402   26.34%   Accumulated:   45.74%
 Between  1.0000E-03 and  1.0000E-04:        1256   13.77%   Accumulated:   59.52%
 Between  1.0000E-04 and  1.0000E-05:         527    5.78%   Accumulated:   65.30%
 Between  1.0000E-05 and  1.0000E-06:         658    7.22%   Accumulated:   72.52%
 Smaller than            1.0000E-06:        2506   27.48%   Accumulated:  100.00%

 Number of elements exactly 0.0   :          57    0.63%
 Number of negative elements      :           0    0.00%

 Converged  :       3691
 Unconverged:       5427

 Total number of zeroed negative diagonals:               0

 Minimum diagonal:    0.000000E+00
 Maximum diagonal:    1.547005E+00
 Mean value      :    1.405457E-02
 Mean abs. value :    1.405457E-02
 Biased variance :    5.876087E-02
 Standard dev.   :    5.876409E-02 (unbiased variance)


  Reduced Set Information
  =======================

                          Reduced Set
Sym.          Full      First    Current
----------------------------------------
  1         9316.0       9118       9057
----------------------------------------
Total:      9316.0       9118       9057
----------------------------------------

First Reduced Set:        55 of        55 shell pairs contribute ( 100.00%)
Curr. Reduced Set:        55 of        55 shell pairs contribute ( 100.00%)

Overall timings for integral pass      4 (CPU/Wall in seconds):
Integrals (incl. qualified I/O etc.):         1.60         1.63
Decomposition of qualified columns  :         0.00         0.04
Total (incl. restart info I/O etc.) :         1.60         1.69


  Integral Pass      5
  ********************

Number of shell pair distributions calculated:   1
#Cholesky vec.:       55
#vec. in buff.:       55
#qualified    :       71
#vec. gener.  :       40


  Histogram of Diagonal Elements
  ==============================

 Larger than             1.0000E+02:           0    0.00%   Accumulated:    0.00%
 Between  1.0000E+02 and  1.0000E+01:           0    0.00%   Accumulated:    0.00%
 Between  1.0000E+01 and  1.0000E+00:           3    0.03%   Accumulated:    0.03%
 Between  1.0000E+00 and  1.0000E-01:         163    1.79%   Accumulated:    1.82%
 Between  1.0000E-01 and  1.0000E-02:        1334   14.63%   Accumulated:   16.45%
 Between  1.0000E-02 and  1.0000E-03:        2338   25.64%   Accumulated:   42.09%
 Between  1.0000E-03 and  1.0000E-04:        1325   14.53%   Accumulated:   56.62%
 Between  1.0000E-04 and  1.0000E-05:         553    6.06%   Accumulated:   62.69%
 Between  1.0000E-05 and  1.0000E-06:         677    7.42%   Accumulated:   70.11%
 Smaller than            1.0000E-06:        2725   29.89%   Accumulated:  100.00%

 Number of elements exactly 0.0   :          99    1.09%
 Number of negative elements      :           0    0.00%

 Converged  :       3955
 Unconverged:       5163

 Total number of zeroed negative diagonals:               0

 Minimum diagonal:    0.000000E+00
 Maximum diagonal:    1.157259E+00
 Mean value      :    9.315312E-03
 Mean abs. value :    9.315312E-03
 Biased variance :    3.943582E-02
 Standard dev.   :    3.943798E-02 (unbiased variance)


  Reduced Set Information
  =======================

                          Reduced Set
Sym.          Full      First    Current
----------------------------------------
  1         9316.0       9118       9015
----------------------------------------
Total:      9316.0       9118       9015
----------------------------------------

First Reduced Set:        55 of        55 shell pairs contribute ( 100.00%)
Curr. Reduced Set:        55 of        55 shell pairs contribute ( 100.00%)

Overall timings for integral pass      5 (CPU/Wall in seconds):
Integrals (incl. qualified I/O etc.):         2.92         2.98
Decomposition of qualified columns  :         0.01         0.13
Total (incl. restart info I/O etc.) :         2.93         3.13


  Integral Pass      6
  ********************

Number of shell pair distributions calculated:   1
#Cholesky vec.:       95
#vec. in buff.:       95
#qualified    :       69
#vec. gener.  :       46


  Histogram of Diagonal Elements
  ==============================

 Larger than             1.0000E+02:           0    0.00%   Accumulated:    0.00%
 Between  1.0000E+02 and  1.0000E+01:           0    0.00%   Accumulated:    0.00%
 Between  1.0000E+01 and  1.0000E+00:           0    0.00%   Accumulated:    0.00%
 Between  1.0000E+00 and  1.0000E-01:          80    0.88%   Accumulated:    0.88%
 Between  1.0000E-01 and  1.0000E-02:        1180   12.94%   Accumulated:   13.82%
 Between  1.0000E-02 and  1.0000E-03:        2186   23.97%   Accumulated:   37.79%
 Between  1.0000E-03 and  1.0000E-04:        1400   15.35%   Accumulated:   53.15%
 Between  1.0000E-04 and  1.0000E-05:         611    6.70%   Accumulated:   59.85%
 Between  1.0000E-05 and  1.0000E-06:         654    7.17%   Accumulated:   67.02%
 Smaller than            1.0000E-06:        3007   32.98%   Accumulated:  100.00%

 Number of elements exactly 0.0   :         154    1.69%
 Number of negative elements      :           0    0.00%

 Converged  :       4272
 Unconverged:       4846

 Total number of zeroed negative diagonals:               3
 WARNING: most negative zeroed diagonal has not been stored!

 Minimum diagonal:    0.000000E+00
 Maximum diagonal:    2.094920E-01
 Mean value      :    5.675060E-03
 Mean abs. value :    5.675060E-03
 Biased variance :    1.689710E-02
 Standard dev.   :    1.689802E-02 (unbiased variance)


  Reduced Set Information
  =======================

                          Reduced Set
Sym.          Full      First    Current
----------------------------------------
  1         9316.0       9118       8935
----------------------------------------
Total:      9316.0       9118       8935
----------------------------------------

First Reduced Set:        55 of        55 shell pairs contribute ( 100.00%)
Curr. Reduced Set:        55 of        55 shell pairs contribute ( 100.00%)

Overall timings for integral pass      6 (CPU/Wall in seconds):
Integrals (incl. qualified I/O etc.):         2.92         2.96
Decomposition of qualified columns  :         0.01         0.09
Total (incl. restart info I/O etc.) :         2.93         3.09


  Integral Pass      7
  ********************

Number of shell pair distributions calculated:   1
#Cholesky vec.:      141
#vec. in buff.:      141
#qualified    :      100
#vec. gener.  :       47


  Histogram of Diagonal Elements
  ==============================

 Larger than             1.0000E+02:           0    0.00%   Accumulated:    0.00%
 Between  1.0000E+02 and  1.0000E+01:           0    0.00%   Accumulated:    0.00%
 Between  1.0000E+01 and  1.0000E+00:           0    0.00%   Accumulated:    0.00%
 Between  1.0000E+00 and  1.0000E-01:          48    0.53%   Accumulated:    0.53%
 Between  1.0000E-01 and  1.0000E-02:         989   10.85%   Accumulated:   11.37%
 Between  1.0000E-02 and  1.0000E-03:        2011   22.06%   Accumulated:   33.43%
 Between  1.0000E-03 and  1.0000E-04:        1403   15.39%   Accumulated:   48.82%
 Between  1.0000E-04 and  1.0000E-05:         678    7.44%   Accumulated:   56.25%
 Between  1.0000E-05 and  1.0000E-06:         656    7.19%   Accumulated:   63.45%
 Smaller than            1.0000E-06:        3333   36.55%   Accumulated:  100.00%

 Number of elements exactly 0.0   :         226    2.48%
 Number of negative elements      :           0    0.00%

 Converged  :       4667
 Unconverged:       4451

 Total number of zeroed negative diagonals:               9
 WARNING: most negative zeroed diagonal has not been stored!

 Minimum diagonal:    0.000000E+00
 Maximum diagonal:    2.094666E-01
 Mean value      :    4.294382E-03
 Mean abs. value :    4.294382E-03
 Biased variance :    1.378994E-02
 Standard dev.   :    1.379069E-02 (unbiased variance)


  Reduced Set Information
  =======================

                          Reduced Set
Sym.          Full      First    Current
----------------------------------------
  1         9316.0       9118       8863
----------------------------------------
Total:      9316.0       9118       8863
----------------------------------------

First Reduced Set:        55 of        55 shell pairs contribute ( 100.00%)
Curr. Reduced Set:        55 of        55 shell pairs contribute ( 100.00%)

Overall timings for integral pass      7 (CPU/Wall in seconds):
Integrals (incl. qualified I/O etc.):         3.70         3.75
Decomposition of qualified columns  :         0.01         0.07
Total (incl. restart info I/O etc.) :         3.71         3.85


  Integral Pass      8
  ********************

Number of shell pair distributions calculated:   1
#Cholesky vec.:      188
#vec. in buff.:      188
#qualified    :      100
#vec. gener.  :       44


  Histogram of Diagonal Elements
  ==============================

 Larger than             1.0000E+02:           0    0.00%   Accumulated:    0.00%
 Between  1.0000E+02 and  1.0000E+01:           0    0.00%   Accumulated:    0.00%
 Between  1.0000E+01 and  1.0000E+00:           0    0.00%   Accumulated:    0.00%
 Between  1.0000E+00 and  1.0000E-01:          16    0.18%   Accumulated:    0.18%
 Between  1.0000E-01 and  1.0000E-02:         805    8.83%   Accumulated:    9.00%
 Between  1.0000E-02 and  1.0000E-03:        1869   20.50%   Accumulated:   29.50%
 Between  1.0000E-03 and  1.0000E-04:        1398   15.33%   Accumulated:   44.83%
 Between  1.0000E-04 and  1.0000E-05:         754    8.27%   Accumulated:   53.10%
 Between  1.0000E-05 and  1.0000E-06:         673    7.38%   Accumulated:   60.48%
 Smaller than            1.0000E-06:        3603   39.52%   Accumulated:  100.00%

 Number of elements exactly 0.0   :         300    3.29%
 Number of negative elements      :           0    0.00%

 Converged  :       5030
 Unconverged:       4088

 Total number of zeroed negative diagonals:              13
 WARNING: most negative zeroed diagonal has not been stored!

 Minimum diagonal:    0.000000E+00
 Maximum diagonal:    1.568909E-01
 Mean value      :    2.963561E-03
 Mean abs. value :    2.963561E-03
 Biased variance :    9.604005E-03
 Standard dev.   :    9.604532E-03 (unbiased variance)


  Reduced Set Information
  =======================

                          Reduced Set
Sym.          Full      First    Current
----------------------------------------
  1         9316.0       9118       8780
----------------------------------------
Total:      9316.0       9118       8780
----------------------------------------

First Reduced Set:        55 of        55 shell pairs contribute ( 100.00%)
Curr. Reduced Set:        55 of        55 shell pairs contribute ( 100.00%)

Overall timings for integral pass      8 (CPU/Wall in seconds):
Integrals (incl. qualified I/O etc.):         3.70         3.75
Decomposition of qualified columns  :         0.01         0.07
Total (incl. restart info I/O etc.) :         3.71         3.87


  Integral Pass      9
  ********************

Number of shell pair distributions calculated:   1
#Cholesky vec.:      232
#vec. in buff.:      232
#qualified    :      100
#vec. gener.  :       57


  Histogram of Diagonal Elements
  ==============================

 Larger than             1.0000E+02:           0    0.00%   Accumulated:    0.00%
 Between  1.0000E+02 and  1.0000E+01:           0    0.00%   Accumulated:    0.00%
 Between  1.0000E+01 and  1.0000E+00:           0    0.00%   Accumulated:    0.00%
 Between  1.0000E+00 and  1.0000E-01:           8    0.09%   Accumulated:    0.09%
 Between  1.0000E-01 and  1.0000E-02:         565    6.20%   Accumulated:    6.28%
 Between  1.0000E-02 and  1.0000E-03:        1721   18.87%   Accumulated:   25.16%
 Between  1.0000E-03 and  1.0000E-04:        1423   15.61%   Accumulated:   40.77%
 Between  1.0000E-04 and  1.0000E-05:         866    9.50%   Accumulated:   50.26%
 Between  1.0000E-05 and  1.0000E-06:         724    7.94%   Accumulated:   58.20%
 Smaller than            1.0000E-06:        3811   41.80%   Accumulated:  100.00%

 Number of elements exactly 0.0   :         385    4.22%
 Number of negative elements      :           0    0.00%

 Converged  :       5401
 Unconverged:       3717

 Total number of zeroed negative diagonals:              19
 WARNING: most negative zeroed diagonal has not been stored!

 Minimum diagonal:    0.000000E+00
 Maximum diagonal:    1.561919E-01
 Mean value      :    2.133029E-03
 Mean abs. value :    2.133029E-03
 Biased variance :    7.327407E-03
 Standard dev.   :    7.327809E-03 (unbiased variance)


  Reduced Set Information
  =======================

                          Reduced Set
Sym.          Full      First    Current
----------------------------------------
  1         9316.0       9118       8695
----------------------------------------
Total:      9316.0       9118       8695
----------------------------------------

First Reduced Set:        55 of        55 shell pairs contribute ( 100.00%)
Curr. Reduced Set:        55 of        55 shell pairs contribute ( 100.00%)

Overall timings for integral pass      9 (CPU/Wall in seconds):
Integrals (incl. qualified I/O etc.):         4.94         5.02
Decomposition of qualified columns  :         0.02         0.22
Total (incl. restart info I/O etc.) :         4.97         5.29


  Integral Pass     10
  ********************

Number of shell pair distributions calculated:   1
#Cholesky vec.:      289
#vec. in buff.:      289
#qualified    :      100
#vec. gener.  :       69


  Histogram of Diagonal Elements
  ==============================

 Larger than             1.0000E+02:           0    0.00%   Accumulated:    0.00%
 Between  1.0000E+02 and  1.0000E+01:           0    0.00%   Accumulated:    0.00%
 Between  1.0000E+01 and  1.0000E+00:           0    0.00%   Accumulated:    0.00%
 Between  1.0000E+00 and  1.0000E-01:           0    0.00%   Accumulated:    0.00%
 Between  1.0000E-01 and  1.0000E-02:         308    3.38%   Accumulated:    3.38%
 Between  1.0000E-02 and  1.0000E-03:        1494   16.39%   Accumulated:   19.76%
 Between  1.0000E-03 and  1.0000E-04:        1405   15.41%   Accumulated:   35.17%
 Between  1.0000E-04 and  1.0000E-05:        1010   11.08%   Accumulated:   46.25%
 Between  1.0000E-05 and  1.0000E-06:         764    8.38%   Accumulated:   54.63%
 Smaller than            1.0000E-06:        4137   45.37%   Accumulated:  100.00%

 Number of elements exactly 0.0   :         502    5.51%
 Number of negative elements      :           0    0.00%

 Converged  :       5911
 Unconverged:       3207

 Total number of zeroed negative diagonals:              28
 WARNING: most negative zeroed diagonal has not been stored!

 Minimum diagonal:    0.000000E+00
 Maximum diagonal:    3.896660E-02
 Mean value      :    1.224695E-03
 Mean abs. value :    1.224695E-03
 Biased variance :    3.543853E-03
 Standard dev.   :    3.544048E-03 (unbiased variance)


  Reduced Set Information
  =======================

                          Reduced Set
Sym.          Full      First    Current
----------------------------------------
  1         9316.0       9118       8515
----------------------------------------
Total:      9316.0       9118       8515
----------------------------------------

First Reduced Set:        55 of        55 shell pairs contribute ( 100.00%)
Curr. Reduced Set:        55 of        55 shell pairs contribute ( 100.00%)

Overall timings for integral pass     10 (CPU/Wall in seconds):
Integrals (incl. qualified I/O etc.):         4.97         5.03
Decomposition of qualified columns  :         0.02         0.25
Total (incl. restart info I/O etc.) :         4.99         5.32


  Integral Pass     11
  ********************

Number of shell pair distributions calculated:   1
#Cholesky vec.:      358
#vec. in buff.:      358
#qualified    :      100
#vec. gener.  :       46


  Histogram of Diagonal Elements
  ==============================

 Larger than             1.0000E+02:           0    0.00%   Accumulated:    0.00%
 Between  1.0000E+02 and  1.0000E+01:           0    0.00%   Accumulated:    0.00%
 Between  1.0000E+01 and  1.0000E+00:           0    0.00%   Accumulated:    0.00%
 Between  1.0000E+00 and  1.0000E-01:           0    0.00%   Accumulated:    0.00%
 Between  1.0000E-01 and  1.0000E-02:         189    2.07%   Accumulated:    2.07%
 Between  1.0000E-02 and  1.0000E-03:        1279   14.03%   Accumulated:   16.10%
 Between  1.0000E-03 and  1.0000E-04:        1447   15.87%   Accumulated:   31.97%
 Between  1.0000E-04 and  1.0000E-05:        1085   11.90%   Accumulated:   43.87%
 Between  1.0000E-05 and  1.0000E-06:         801    8.78%   Accumulated:   52.65%
 Smaller than            1.0000E-06:        4317   47.35%   Accumulated:  100.00%

 Number of elements exactly 0.0   :         575    6.31%
 Number of negative elements      :           0    0.00%

 Converged  :       6203
 Unconverged:       2915

 Total number of zeroed negative diagonals:              37
 WARNING: most negative zeroed diagonal has not been stored!

 Minimum diagonal:    0.000000E+00
 Maximum diagonal:    3.896494E-02
 Mean value      :    9.016725E-04
 Mean abs. value :    9.016725E-04
 Biased variance :    2.907121E-03
 Standard dev.   :    2.907280E-03 (unbiased variance)


  Reduced Set Information
  =======================

                          Reduced Set
Sym.          Full      First    Current
----------------------------------------
  1         9316.0       9118       8442
----------------------------------------
Total:      9316.0       9118       8442
----------------------------------------

First Reduced Set:        55 of        55 shell pairs contribute ( 100.00%)
Curr. Reduced Set:        55 of        55 shell pairs contribute ( 100.00%)

Overall timings for integral pass     11 (CPU/Wall in seconds):
Integrals (incl. qualified I/O etc.):         5.74         5.81
Decomposition of qualified columns  :         0.02         0.14
Total (incl. restart info I/O etc.) :         5.76         6.09


  Integral Pass     12
  ********************

Number of shell pair distributions calculated:   1
#Cholesky vec.:      404
#vec. in buff.:      404
#qualified    :      100
#vec. gener.  :       46


  Histogram of Diagonal Elements
  ==============================

 Larger than             1.0000E+02:           0    0.00%   Accumulated:    0.00%
 Between  1.0000E+02 and  1.0000E+01:           0    0.00%   Accumulated:    0.00%
 Between  1.0000E+01 and  1.0000E+00:           0    0.00%   Accumulated:    0.00%
 Between  1.0000E+00 and  1.0000E-01:           0    0.00%   Accumulated:    0.00%
 Between  1.0000E-01 and  1.0000E-02:          71    0.78%   Accumulated:    0.78%
 Between  1.0000E-02 and  1.0000E-03:        1071   11.75%   Accumulated:   12.52%
 Between  1.0000E-03 and  1.0000E-04:        1477   16.20%   Accumulated:   28.72%
 Between  1.0000E-04 and  1.0000E-05:        1143   12.54%   Accumulated:   41.26%
 Between  1.0000E-05 and  1.0000E-06:         852    9.34%   Accumulated:   50.60%
 Smaller than            1.0000E-06:        4504   49.40%   Accumulated:  100.00%

 Number of elements exactly 0.0   :         657    7.21%
 Number of negative elements      :           0    0.00%

 Converged  :       6499
 Unconverged:       2619

 Total number of zeroed negative diagonals:              48
 WARNING: most negative zeroed diagonal has not been stored!

 Minimum diagonal:    0.000000E+00
 Maximum diagonal:    3.194481E-02
 Mean value      :    5.808136E-04
 Mean abs. value :    5.808136E-04
 Biased variance :    2.038313E-03
 Standard dev.   :    2.038424E-03 (unbiased variance)


  Reduced Set Information
  =======================

                          Reduced Set
Sym.          Full      First    Current
----------------------------------------
  1         9316.0       9118       8344
----------------------------------------
Total:      9316.0       9118       8344
----------------------------------------

First Reduced Set:        55 of        55 shell pairs contribute ( 100.00%)
Curr. Reduced Set:        55 of        55 shell pairs contribute ( 100.00%)

Overall timings for integral pass     12 (CPU/Wall in seconds):
Integrals (incl. qualified I/O etc.):         5.73         5.80
Decomposition of qualified columns  :         0.02         0.14
Total (incl. restart info I/O etc.) :         5.75         5.98


  Integral Pass     13
  ********************

Number of shell pair distributions calculated:   1
#Cholesky vec.:      450
#vec. in buff.:      450
#qualified    :      100
#vec. gener.  :       55


  Histogram of Diagonal Elements
  ==============================

 Larger than             1.0000E+02:           0    0.00%   Accumulated:    0.00%
 Between  1.0000E+02 and  1.0000E+01:           0    0.00%   Accumulated:    0.00%
 Between  1.0000E+01 and  1.0000E+00:           0    0.00%   Accumulated:    0.00%
 Between  1.0000E+00 and  1.0000E-01:           0    0.00%   Accumulated:    0.00%
 Between  1.0000E-01 and  1.0000E-02:          35    0.38%   Accumulated:    0.38%
 Between  1.0000E-02 and  1.0000E-03:         834    9.15%   Accumulated:    9.53%
 Between  1.0000E-03 and  1.0000E-04:        1331   14.60%   Accumulated:   24.13%
 Between  1.0000E-04 and  1.0000E-05:        1274   13.97%   Accumulated:   38.10%
 Between  1.0000E-05 and  1.0000E-06:         973   10.67%   Accumulated:   48.77%
 Smaller than            1.0000E-06:        4671   51.23%   Accumulated:  100.00%

 Number of elements exactly 0.0   :         760    8.34%
 Number of negative elements      :           0    0.00%

 Converged  :       6918
 Unconverged:       2200

 Total number of zeroed negative diagonals:              51
 WARNING: most negative zeroed diagonal has not been stored!

 Minimum diagonal:    0.000000E+00
 Maximum diagonal:    3.165597E-02
 Mean value      :    4.079051E-04
 Mean abs. value :    4.079051E-04
 Biased variance :    1.558456E-03
 Standard dev.   :    1.558541E-03 (unbiased variance)


  Reduced Set Information
  =======================

                          Reduced Set
Sym.          Full      First    Current
----------------------------------------
  1         9316.0       9118       8241
----------------------------------------
Total:      9316.0       9118       8241
----------------------------------------

First Reduced Set:        55 of        55 shell pairs contribute ( 100.00%)
Curr. Reduced Set:        55 of        55 shell pairs contribute ( 100.00%)

Overall timings for integral pass     13 (CPU/Wall in seconds):
Integrals (incl. qualified I/O etc.):         7.33         7.39
Decomposition of qualified columns  :         0.03         0.12
Total (incl. restart info I/O etc.) :         7.36         7.57


  Integral Pass     14
  ********************

Number of shell pair distributions calculated:   1
#Cholesky vec.:      505
#vec. in buff.:      505
#qualified    :      100
#vec. gener.  :       52


  Histogram of Diagonal Elements
  ==============================

 Larger than             1.0000E+02:           0    0.00%   Accumulated:    0.00%
 Between  1.0000E+02 and  1.0000E+01:           0    0.00%   Accumulated:    0.00%
 Between  1.0000E+01 and  1.0000E+00:           0    0.00%   Accumulated:    0.00%
 Between  1.0000E+00 and  1.0000E-01:           0    0.00%   Accumulated:    0.00%
 Between  1.0000E-01 and  1.0000E-02:           0    0.00%   Accumulated:    0.00%
 Between  1.0000E-02 and  1.0000E-03:         640    7.02%   Accumulated:    7.02%
 Between  1.0000E-03 and  1.0000E-04:        1169   12.82%   Accumulated:   19.84%
 Between  1.0000E-04 and  1.0000E-05:        1382   15.16%   Accumulated:   35.00%
 Between  1.0000E-05 and  1.0000E-06:        1134   12.44%   Accumulated:   47.43%
 Smaller than            1.0000E-06:        4793   52.57%   Accumulated:  100.00%

 Number of elements exactly 0.0   :         847    9.29%
 Number of negative elements      :           0    0.00%

 Converged  :       7309
 Unconverged:       1809

 Total number of zeroed negative diagonals:              52
 WARNING: most negative zeroed diagonal has not been stored!

 Minimum diagonal:    0.000000E+00
 Maximum diagonal:    8.915985E-03
 Mean value      :    2.503631E-04
 Mean abs. value :    2.503631E-04
 Biased variance :    8.525604E-04
 Standard dev.   :    8.526072E-04 (unbiased variance)


  Reduced Set Information
  =======================

                          Reduced Set
Sym.          Full      First    Current
----------------------------------------
  1         9316.0       9118       8054
----------------------------------------
Total:      9316.0       9118       8054
----------------------------------------

First Reduced Set:        55 of        55 shell pairs contribute ( 100.00%)
Curr. Reduced Set:        55 of        55 shell pairs contribute ( 100.00%)

Overall timings for integral pass     14 (CPU/Wall in seconds):
Integrals (incl. qualified I/O etc.):         7.29         7.36
Decomposition of qualified columns  :         0.03         0.33
Total (incl. restart info I/O etc.) :         7.32         7.87


  Integral Pass     15
  ********************

Number of shell pair distributions calculated:   1
#Cholesky vec.:      557
#vec. in buff.:      557
#qualified    :      100
#vec. gener.  :       47


  Histogram of Diagonal Elements
  ==============================

 Larger than             1.0000E+02:           0    0.00%   Accumulated:    0.00%
 Between  1.0000E+02 and  1.0000E+01:           0    0.00%   Accumulated:    0.00%
 Between  1.0000E+01 and  1.0000E+00:           0    0.00%   Accumulated:    0.00%
 Between  1.0000E+00 and  1.0000E-01:           0    0.00%   Accumulated:    0.00%
 Between  1.0000E-01 and  1.0000E-02:           0    0.00%   Accumulated:    0.00%
 Between  1.0000E-02 and  1.0000E-03:         475    5.21%   Accumulated:    5.21%
 Between  1.0000E-03 and  1.0000E-04:        1107   12.14%   Accumulated:   17.35%
 Between  1.0000E-04 and  1.0000E-05:        1505   16.51%   Accumulated:   33.86%
 Between  1.0000E-05 and  1.0000E-06:        1162   12.74%   Accumulated:   46.60%
 Smaller than            1.0000E-06:        4869   53.40%   Accumulated:  100.00%

 Number of elements exactly 0.0   :         908    9.96%
 Number of negative elements      :           0    0.00%

 Converged  :       7536
 Unconverged:       1582

 Total number of zeroed negative diagonals:              55
 WARNING: most negative zeroed diagonal has not been stored!

 Minimum diagonal:    0.000000E+00
 Maximum diagonal:    8.905340E-03
 Mean value      :    1.917637E-04
 Mean abs. value :    1.917637E-04
 Biased variance :    7.188070E-04
 Standard dev.   :    7.188465E-04 (unbiased variance)


  Reduced Set Information
  =======================

                          Reduced Set
Sym.          Full      First    Current
----------------------------------------
  1         9316.0       9118       7993
----------------------------------------
Total:      9316.0       9118       7993
----------------------------------------

First Reduced Set:        55 of        55 shell pairs contribute ( 100.00%)
Curr. Reduced Set:        55 of        55 shell pairs contribute ( 100.00%)

Overall timings for integral pass     15 (CPU/Wall in seconds):
Integrals (incl. qualified I/O etc.):         3.24         3.27
Decomposition of qualified columns  :         0.03         0.15
Total (incl. restart info I/O etc.) :         3.27         3.45


  Integral Pass     16
  ********************

Number of shell pair distributions calculated:   1
#Cholesky vec.:      604
#vec. in buff.:      604
#qualified    :      100
#vec. gener.  :       47


  Histogram of Diagonal Elements
  ==============================

 Larger than             1.0000E+02:           0    0.00%   Accumulated:    0.00%
 Between  1.0000E+02 and  1.0000E+01:           0    0.00%   Accumulated:    0.00%
 Between  1.0000E+01 and  1.0000E+00:           0    0.00%   Accumulated:    0.00%
 Between  1.0000E+00 and  1.0000E-01:           0    0.00%   Accumulated:    0.00%
 Between  1.0000E-01 and  1.0000E-02:           0    0.00%   Accumulated:    0.00%
 Between  1.0000E-02 and  1.0000E-03:         306    3.36%   Accumulated:    3.36%
 Between  1.0000E-03 and  1.0000E-04:        1049   11.50%   Accumulated:   14.86%
 Between  1.0000E-04 and  1.0000E-05:        1614   17.70%   Accumulated:   32.56%
 Between  1.0000E-05 and  1.0000E-06:        1207   13.24%   Accumulated:   45.80%
 Smaller than            1.0000E-06:        4942   54.20%   Accumulated:  100.00%

 Number of elements exactly 0.0   :         973   10.67%
 Number of negative elements      :           0    0.00%

 Converged  :       7763
 Unconverged:       1355

 Total number of zeroed negative diagonals:              57
 WARNING: most negative zeroed diagonal has not been stored!

 Minimum diagonal:    0.000000E+00
 Maximum diagonal:    7.923857E-03
 Mean value      :    1.336755E-04
 Mean abs. value :    1.336755E-04
 Biased variance :    5.517416E-04
 Standard dev.   :    5.517719E-04 (unbiased variance)


  Reduced Set Information
  =======================

                          Reduced Set
Sym.          Full      First    Current
----------------------------------------
  1         9316.0       9118       7921
----------------------------------------
Total:      9316.0       9118       7921
----------------------------------------

First Reduced Set:        55 of        55 shell pairs contribute ( 100.00%)
Curr. Reduced Set:        55 of        55 shell pairs contribute ( 100.00%)

Overall timings for integral pass     16 (CPU/Wall in seconds):
Integrals (incl. qualified I/O etc.):         3.24         3.27
Decomposition of qualified columns  :         0.02         0.10
Total (incl. restart info I/O etc.) :         3.26         3.39


  Integral Pass     17
  ********************

Number of shell pair distributions calculated:   1
#Cholesky vec.:      651
#vec. in buff.:      651
#qualified    :       45
#vec. gener.  :       42


  Histogram of Diagonal Elements
  ==============================

 Larger than             1.0000E+02:           0    0.00%   Accumulated:    0.00%
 Between  1.0000E+02 and  1.0000E+01:           0    0.00%   Accumulated:    0.00%
 Between  1.0000E+01 and  1.0000E+00:           0    0.00%   Accumulated:    0.00%
 Between  1.0000E+00 and  1.0000E-01:           0    0.00%   Accumulated:    0.00%
 Between  1.0000E-01 and  1.0000E-02:           0    0.00%   Accumulated:    0.00%
 Between  1.0000E-02 and  1.0000E-03:         223    2.45%   Accumulated:    2.45%
 Between  1.0000E-03 and  1.0000E-04:        1011   11.09%   Accumulated:   13.53%
 Between  1.0000E-04 and  1.0000E-05:        1605   17.60%   Accumulated:   31.14%
 Between  1.0000E-05 and  1.0000E-06:        1221   13.39%   Accumulated:   44.53%
 Smaller than            1.0000E-06:        5058   55.47%   Accumulated:  100.00%

 Number of elements exactly 0.0   :        1022   11.21%
 Number of negative elements      :           0    0.00%

 Converged  :       7884
 Unconverged:       1234

 Total number of zeroed negative diagonals:              57
 WARNING: most negative zeroed diagonal has not been stored!

 Minimum diagonal:    0.000000E+00
 Maximum diagonal:    7.904652E-03
 Mean value      :    1.070480E-04
 Mean abs. value :    1.070480E-04
 Biased variance :    4.585820E-04
 Standard dev.   :    4.586071E-04 (unbiased variance)


  Reduced Set Information
  =======================

                          Reduced Set
Sym.          Full      First    Current
----------------------------------------
  1         9316.0       9118       7872
----------------------------------------
Total:      9316.0       9118       7872
----------------------------------------

First Reduced Set:        55 of        55 shell pairs contribute ( 100.00%)
Curr. Reduced Set:        55 of        55 shell pairs contribute ( 100.00%)

Overall timings for integral pass     17 (CPU/Wall in seconds):
Integrals (incl. qualified I/O etc.):         1.51         1.52
Decomposition of qualified columns  :         0.03         0.09
Total (incl. restart info I/O etc.) :         1.54         1.63


  Integral Pass     18
  ********************

Number of shell pair distributions calculated:   1
#Cholesky vec.:      693
#vec. in buff.:      693
#qualified    :       45
#vec. gener.  :       40


  Histogram of Diagonal Elements
  ==============================

 Larger than             1.0000E+02:           0    0.00%   Accumulated:    0.00%
 Between  1.0000E+02 and  1.0000E+01:           0    0.00%   Accumulated:    0.00%
 Between  1.0000E+01 and  1.0000E+00:           0    0.00%   Accumulated:    0.00%
 Between  1.0000E+00 and  1.0000E-01:           0    0.00%   Accumulated:    0.00%
 Between  1.0000E-01 and  1.0000E-02:           0    0.00%   Accumulated:    0.00%
 Between  1.0000E-02 and  1.0000E-03:         151    1.66%   Accumulated:    1.66%
 Between  1.0000E-03 and  1.0000E-04:         986   10.81%   Accumulated:   12.47%
 Between  1.0000E-04 and  1.0000E-05:        1603   17.58%   Accumulated:   30.05%
 Between  1.0000E-05 and  1.0000E-06:        1218   13.36%   Accumulated:   43.41%
 Smaller than            1.0000E-06:        5160   56.59%   Accumulated:  100.00%

 Number of elements exactly 0.0   :        1065   11.68%
 Number of negative elements      :           0    0.00%

 Converged  :       7981
 Unconverged:       1137

 Total number of zeroed negative diagonals:              57
 WARNING: most negative zeroed diagonal has not been stored!

 Minimum diagonal:    0.000000E+00
 Maximum diagonal:    6.149157E-03
 Mean value      :    8.249259E-05
 Mean abs. value :    8.249259E-05
 Biased variance :    3.441739E-04
 Standard dev.   :    3.441928E-04 (unbiased variance)


  Reduced Set Information
  =======================

                          Reduced Set
Sym.          Full      First    Current
----------------------------------------
  1         9316.0       9118       7816
----------------------------------------
Total:      9316.0       9118       7816
----------------------------------------

First Reduced Set:        55 of        55 shell pairs contribute ( 100.00%)
Curr. Reduced Set:        55 of        55 shell pairs contribute ( 100.00%)

Overall timings for integral pass     18 (CPU/Wall in seconds):
Integrals (incl. qualified I/O etc.):         1.50         1.52
Decomposition of qualified columns  :         0.02         0.13
Total (incl. restart info I/O etc.) :         1.52         1.66


  Integral Pass     19
  ********************

Number of shell pair distributions calculated:   1
[...]
       84 PO2    4py       -0.0000    0.0000    0.0020   -0.0084   -0.0000   -0.0000
       85 PO2    5py       -0.0000    0.0000    0.0163   -0.0697   -0.0000   -0.0000
       86 PO2    6py        0.0000    0.0000    0.0839   -0.3589   -0.0000   -0.0000
       87 PO2    7py       -0.0000   -0.0000    0.0092   -0.0392   -0.0000   -0.0000
       88 PO2    2pz        0.0000   -0.0000   -0.0001   -0.0000   -0.0000   -0.0000
       89 PO2    3pz       -0.0000    0.0000   -0.0012   -0.0003   -0.0000    0.0000
       90 PO2    4pz       -0.0000   -0.0000   -0.0084   -0.0020   -0.0000    0.0000
       91 PO2    5pz       -0.0000    0.0000   -0.0697   -0.0163   -0.0000    0.0000
       92 PO2    6pz       -0.0000    0.0000   -0.3589   -0.0839   -0.0000    0.0000
       93 PO2    7pz        0.0000    0.0000   -0.0392   -0.0092    0.0000    0.0000
       94 PO2    3d2-      -0.0000    0.0000   -0.0000    0.0002    0.0000    0.0000
       95 PO2    4d2-       0.0000   -0.0000   -0.0009    0.0040    0.0000    0.0000
       96 PO2    5d2-      -0.0000   -0.0000   -0.0280    0.1197    0.0000    0.0000
       97 PO2    6d2-       0.0000   -0.0000   -0.1164    0.4980    0.0000    0.0000
       98 PO2    3d1-      -0.0000    0.0000    0.0000   -0.0000   -0.0000   -0.0000
       99 PO2    4d1-      -0.0005   -0.0000    0.0000   -0.0000   -0.0000   -0.0000
      100 PO2    5d1-      -0.0171    0.0000    0.0000   -0.0000   -0.0000   -0.0000
      101 PO2    6d1-      -0.1216    0.0000    0.0000   -0.0000    0.0000    0.0000
      102 PO2    3d0       -0.0000    0.0001   -0.0000    0.0000    0.0002   -0.0005
      103 PO2    4d0       -0.0000    0.0013    0.0000    0.0000    0.0040   -0.0108
      104 PO2    5d0       -0.0003    0.0042    0.0000   -0.0000    0.0948   -0.2316
      105 PO2    6d0       -0.0023   -0.2692   -0.0000   -0.0000    0.2688   -0.5179
      106 PO2    3d1+      -0.0000   -0.0000    0.0002    0.0000    0.0000    0.0000
      107 PO2    4d1+      -0.0000    0.0000    0.0040    0.0009    0.0000   -0.0000
      108 PO2    5d1+       0.0000   -0.0000    0.1197    0.0280    0.0000   -0.0000
      109 PO2    6d1+      -0.0000   -0.0000    0.4980    0.1164    0.0000    0.0000
      110 PO2    3d2+      -0.0000   -0.0001    0.0000   -0.0000   -0.0003    0.0009
      111 PO2    4d2+      -0.0000   -0.0023   -0.0000   -0.0000   -0.0069    0.0187
      112 PO2    5d2+      -0.0002   -0.0073   -0.0000   -0.0000   -0.1642    0.4012
      113 PO2    6d2+      -0.0013    0.4662    0.0000    0.0000   -0.4656    0.8971
      114 PO2    4f3-      -0.0000    0.0000    0.0007   -0.0032   -0.0000   -0.0000
      115 PO2    5f3-       0.0000    0.0000    0.1571   -0.6725   -0.0000   -0.0000
      116 PO2    4f2-       0.0006   -0.0000    0.0000    0.0000    0.0000    0.0000
      117 PO2    5f2-       0.7165   -0.0000   -0.0000    0.0000    0.0000    0.0000
      118 PO2    4f1-       0.0000   -0.0000   -0.0002    0.0008    0.0000    0.0000
      119 PO2    5f1-      -0.0000    0.0000   -0.0406    0.1736    0.0000   -0.0000
      120 PO2    4f0        0.0000   -0.0000    0.0020    0.0005    0.0000   -0.0000
      121 PO2    5f0        0.0000   -0.0000    0.4253    0.0994   -0.0000   -0.0000
      122 PO2    4f1+       0.0000   -0.0007    0.0000    0.0000   -0.0034    0.0055
      123 PO2    5f1+       0.0123    0.2673    0.0000    0.0000   -0.3992    0.1744
      124 PO2    4f2+       0.0000    0.0000   -0.0026   -0.0006   -0.0000    0.0000
      125 PO2    5f2+      -0.0000    0.0000   -0.5491   -0.1283    0.0000    0.0000
      126 PO2    4f3+       0.0000    0.0009   -0.0000   -0.0000    0.0044   -0.0071
      127 PO2    5f3+       0.0095   -0.3451   -0.0000   -0.0000    0.5153   -0.2251
      128 PO2    5g4-      -0.0000   -0.0000   -0.0316    0.1353    0.0000   -0.0000
      129 PO2    5g3-      -0.0854   -0.0000    0.0000   -0.0000    0.0000    0.0000
      130 PO2    5g2-       0.0000   -0.0000    0.0119   -0.0511   -0.0000   -0.0000
      131 PO2    5g1-       0.0323   -0.0000    0.0000    0.0000   -0.0000   -0.0000
      132 PO2    5g0        0.0011    0.0127    0.0000    0.0000   -0.0560    0.0080
      133 PO2    5g1+      -0.0000    0.0000   -0.1085   -0.0253   -0.0000    0.0000
      134 PO2    5g2+      -0.0010   -0.0190   -0.0000   -0.0000    0.0835   -0.0119
      135 PO2    5g3+       0.0000   -0.0000    0.0957    0.0224   -0.0000   -0.0000
      136 PO2    5g4+      -0.0013    0.0251    0.0000    0.0000   -0.1105    0.0157
--
 
 
++    Molecular charges:
      ------------------
 
      Mulliken charges per centre and basis function type
      ---------------------------------------------------
 
                PO1     PO2   
      1s       2.0000  2.0000
      2s       2.0000  2.0000
      2px      2.0000  2.0000
      2pz      2.0000  2.0000
      2py      2.0000  2.0000
      3s       2.0000  2.0000
      3px      2.0000  2.0000
      3pz      2.0000  2.0000
      3py      2.0000  2.0000
      4s       2.0000  2.0000
      3d2+     2.0000  2.0000
      3d1+     2.0000  2.0000
      3d0      2.0000  2.0000
      3d1-     2.0000  2.0000
      3d2-     2.0000  2.0000
      4px      2.0000  2.0000
      4pz      2.0000  2.0000
      4py      2.0000  2.0000
      5s       1.9984  1.9984
      4d2+     2.0000  2.0000
      4d1+     2.0000  2.0000
      4d0      2.0000  2.0000
      4d1-     2.0000  2.0000
      4d2-     2.0000  2.0000
      5px      1.9986  1.9986
      5pz      1.9999  1.9999
      5py      1.9999  1.9999
      6s       1.7869  1.7869
      4f3+     2.0000  2.0000
      4f2+     2.0000  2.0000
      4f1+     2.0000  2.0000
      4f0      2.0000  2.0000
      4f1-     2.0000  2.0000
      4f2-     2.0000  2.0000
      4f3-     2.0000  2.0000
      5d2+     1.9973  1.9973
      5d1+     1.9994  1.9994
      5d0      1.9991  1.9991
      5d1-     2.0000  2.0000
      5d2-     1.9994  1.9994
      6px      1.2197  1.2197
      6pz      1.5007  1.5007
      6py      1.5007  1.5007
      7s      -0.0000  0.0000
      5f3+    -0.0000  0.0000
      5f2+    -0.0000  0.0000
      5f1+    -0.0000  0.0000
      5f0     -0.0000 -0.0000
      5f1-     0.0000  0.0000
      5f2-     0.0000  0.0000
      5f3-    -0.0000  0.0000
      6d2+     0.0000 -0.0000
      6d1+     0.0000  0.0000
      6d0      0.0000 -0.0000
      6d1-     0.0000  0.0000
      6d2-    -0.0000 -0.0000
      7px      0.0000 -0.0000
      7pz      0.0000  0.0000
      7py     -0.0000 -0.0000
      5g4+     0.0000 -0.0000
      5g3+    -0.0000 -0.0000
      5g2+     0.0000 -0.0000
      5g1+     0.0000 -0.0000
      5g0      0.0000 -0.0000
      5g1-     0.0000 -0.0000
      5g2-    -0.0000 -0.0000
      5g3-     0.0000 -0.0000
      5g4-    -0.0000  0.0000
      Total   84.0000 84.0000
 
      N-E      0.0000 -0.0000
 
      Total electronic charge=  168.000000
 
      Total            charge=    0.000000
 
      Mulliken Bond Order analysis
      ----------------------------
      Only bonds with order larger than 0.500 are printed
 
        Atom A        Atom B        Bond Order
        PO1           PO2             1.500
 
--
 
 
      Input file to MOLDEN was generated!
 
++ I/O STATISTICS
 
  I. General I/O information
  - - - - - - - - - - - - - - - - - - - - - - - - - - - - - - - - - - - - - - - - - - -
  Unit  Name          Flsize      Write/Read            MBytes           Write/Read
                      (MBytes)       Calls              In/Out           Time, sec.
  - - - - - - - - - - - - - - - - - - - - - - - - - - - - - - - - - - - - - - - - - - -
   1  RUNFILE           0.50 .    1407/    8948 .     10.1/     65.2 .       0/       0
   2  NQGRID            0.00 .       4/       0 .      0.0/      0.0 .       0/       0
   3  ONEREL           33.71 .      52/    1004 .     68.9/     18.6 .       0/       0
   4  ONEINT            3.70 .      70/     118 .     51.1/     25.0 .       1/       0
   5  CHRED             2.18 .      70/     132 .      2.2/      4.1 .       0/       0
   6  CHVEC1           57.63 .      34/       1 .     57.6/     57.6 .       2/       0
   7  CHORST            0.04 .     408/       0 .      0.7/      0.0 .       0/       0
   8  CHOMAP            0.00 .      34/       0 .      0.0/      0.0 .       0/       0
   9  CHODIAG           0.07 .       1/       1 .      0.1/      0.1 .       0/       0
  10  CHOSEL1           6.82 .      34/    2772 .    117.7/     60.4 .       0/       0
  - - - - - - - - - - - - - - - - - - - - - - - - - - - - - - - - - - - - - - - - - - -
   *  TOTAL           104.64 .    2114/   12976 .    308.4/    231.0 .       6/       0
  - - - - - - - - - - - - - - - - - - - - - - - - - - - - - - - - - - - - - - - - - - -
 
  II. I/O Access Patterns
  - - - - - - - - - - - - - - - - - - - -
  Unit  Name               % of random
                         Write/Read calls
  - - - - - - - - - - - - - - - - - - - -
   1  RUNFILE             28.6/  10.3
   2  NQGRID              25.0/   0.0
   3  ONEREL              96.2/   1.1
   4  ONEINT              97.1/  14.4
   5  CHRED               45.7/  25.8
   6  CHVEC1               0.0/ 100.0
   7  CHORST               8.1/   0.0
   8  CHOMAP              97.1/   0.0
   9  CHODIAG              0.0/   0.0
  10  CHOSEL1              0.0/  99.5
  - - - - - - - - - - - - - - - - - - - -
--
--- Stop Module: seward at Fri Jan 30 16:20:12 2026 /rc=_RC_ALL_IS_WELL_ ---
*** files: system_0.GssOrb system_0.guessorb.h5 system_0.guessorb.molden xmldump
    saved to directory /dodrio/scratch/projects/starting_2025_097/autoCAS4HE_built/autoCAS4HE/tests/autocas/external_scf/Po2_scaling_test/autocas_project/initial
--- Module seward spent 2 minutes 21 seconds ---

*** symbolic link created: INPORB -> system_0.ScfOrb
--- Start Module: scf at Fri Jan 30 16:20:12 2026 ---
 
()()()()()()()()()()()()()()()()()()()()()()()()()()()()()()()()()()()()()()()()()()()()()()()()()()

                                                &SCF

                                   only a single process is used
                        available to each process: 12 GB of memory, 1 thread
                                            pid: 1066428
()()()()()()()()()()()()()()()()()()()()()()()()()()()()()()()()()()()()()()()()()()()()()()()()()()
 
++    Input section:
      --------------
 
      Header of the integral files:
      
       Integrals generated by Gateway/Seward, Fri Jan 30 16:18:07 2026
 
 
      Cartesian coordinates in angstrom:
      -----------------------------------------------------
      No.  Label        X            Y            Z        
      -----------------------------------------------------
       1   PO1       -1.05000000   0.00000000   0.00000000
       2   PO2        1.05000000   0.00000000   0.00000000
      -----------------------------------------------------
      Nuclear repulsion energy = 1778.03542743
--
 
++    Orbital specifications:
      -----------------------
 
      Symmetry species               1
                                     a
      Frozen orbitals                0
      Occupied orbitals             84
      Secondary orbitals            52
      Deleted orbitals               0
      Total number of orbitals     136
      Number of basis functions    136
--
 
      Molecular charge                           0.000
 
++    Optimization specifications:
      ----------------------------
 
      SCF Algorithm: LK-Cholesky
      LK screening threshold:                     4.50E-02
      Local-Exchange (LK) algorithm.
       - the density matrix is decomposed
      The actual AO density is used
      Number of density matrices in core                 5
      Maximum number of NDDO SCF iterations            400
      Maximum number of HF SCF iterations              400
      Threshold for SCF energy change             1.00E-09
      Threshold for density matrix                1.00E-04
      Threshold for Fock matrix                   1.50E-04
      Threshold for linear dependence             1.00E-09
      Threshold at which DIIS is turned on        1.50E-01
      Maximum depth in the DIIS procedure                5
      Maximum depth in the BFGS Hessian update          30
      Threshold at which QNR/C2DIIS is turned on  7.50E-02
      Threshold for Norm(delta) (QNR/C2DIIS)      1.00E-03
      All orbitals punched on: SCFORB
--
 
      Input vectors read from INPORB
      Orbital file label: * SCF orbitals
 
Cho_X_RdRst: #Cholesky vectors (sym. 1):        906
Cho_X_RdRst: ....and from restart file:        874
Cho_X_RdRst: refusing to read more restart info!


Cho_X_Init: WARNING: error reading restart info!
Cho_X_Init: return code from read:     6


 ###############################################################################
 ###############################################################################
 ###                                                                         ###
 ###                                                                         ###
 ###    ERROR: WfCtl. Non-zero rc in Cho_X_init.                             ###
 ###                                                                         ###
 ###                                                                         ###
 ###############################################################################
 ###############################################################################
--- Stop Module: scf at Fri Jan 30 16:20:12 2026 /rc=_RC_FLOATING_EXCEPTION_ ---

.############################.
.# Floating point exception #.
.############################.

    Timing: Wall=146.76 User=130.29 System=2.14

Molcas error log:
[ process      0]: xquit (rc =    128): _INTERNAL_ERROR_
abort: Molcas aborted...


==============================================
  Scaling Test Results: 15 geometries
==============================================
Exit code:    1
Wall time:    192s (3m 12s)
End time:     Fri Jan 30 04:20:19 PM CET 2026

Peak RSS:     599304 KB (585 MB)

--- Full timing output ---
Traceback (most recent call last):
  File "/dodrio/scratch/projects/starting_2025_097/autoCAS4HE_built/autoCAS4HE/autocas/scine_autocas/interfaces/interface.py", line 505, in calculate
    self._dumper.read_initial_orbitals(self)
  File "/dodrio/scratch/projects/starting_2025_097/autoCAS4HE_built/autoCAS4HE/autocas/scine_autocas/interfaces/interface.py", line 56, in read_initial_orbitals
    raise NotImplementedError
NotImplementedError

During handling of the above exception, another exception occurred:

Traceback (most recent call last):
  File "/dodrio/scratch/projects/starting_2025_097/autoCAS4HE_built/autoCAS4HE/autocas_env/bin/scine_autocas_consistent_active_space", line 7, in <module>
    sys.exit(run_from_command_line())
             ^^^^^^^^^^^^^^^^^^^^^^^
  File "/dodrio/scratch/projects/starting_2025_097/autoCAS4HE_built/autoCAS4HE/autocas/scine_autocas/workflows/consistent_active_space/protocol.py", line 74, in run_from_command_line
    run_consistent_active_space_protocol(configuration)
  File "/dodrio/scratch/projects/starting_2025_097/autoCAS4HE_built/autoCAS4HE/autocas/scine_autocas/workflows/consistent_active_space/protocol.py", line 109, in run_consistent_active_space_protocol
    interfaces, molecules = construct_molecules(configuration)
                            ^^^^^^^^^^^^^^^^^^^^^^^^^^^^^^^^^^
  File "/dodrio/scratch/projects/starting_2025_097/autoCAS4HE_built/autoCAS4HE/autocas/scine_autocas/workflows/consistent_active_space/prepare_orbitals.py", line 85, in construct_molecules
    molcas, molecule = setup_molcas_and_molecule(xyz, name, configuration.basis_set)
                       ^^^^^^^^^^^^^^^^^^^^^^^^^^^^^^^^^^^^^^^^^^^^^^^^^^^^^^^^^^^^^
  File "/dodrio/scratch/projects/starting_2025_097/autoCAS4HE_built/autoCAS4HE/autocas/scine_autocas/workflows/consistent_active_space/prepare_orbitals.py", line 43, in setup_molcas_and_molecule
    molcas.calculate()
  File "/dodrio/scratch/projects/starting_2025_097/autoCAS4HE_built/autoCAS4HE/autocas/scine_autocas/interfaces/interface.py", line 509, in calculate
    energy = self._initial_orbitals_impl()
             ^^^^^^^^^^^^^^^^^^^^^^^^^^^^^
  File "/dodrio/scratch/projects/starting_2025_097/autoCAS4HE_built/autoCAS4HE/autocas/scine_autocas/interfaces/molcas/molcas.py", line 402, in _initial_orbitals_impl
    self.run_molcas()
  File "/dodrio/scratch/projects/starting_2025_097/autoCAS4HE_built/autoCAS4HE/autocas/scine_autocas/interfaces/molcas/molcas.py", line 350, in run_molcas
    raise RuntimeError(f"Molcas calculation failed. Please check the log file {full_path} for details.")
RuntimeError: Molcas calculation failed. Please check the log file /dodrio/scratch/projects/starting_2025_097/autoCAS4HE_built/autoCAS4HE/tests/autocas/external_scf/Po2_scaling_test/autocas_project/initial/system_0.log for details.
Command exited with non-zero status 1
	Command being timed: "scine_autocas_consistent_active_space -e -o /dodrio/scratch/projects/starting_2025_097/autoCAS4HE_built/autoCAS4HE/tests/autocas/external_scf/Po2_scaling_test/po2_000.scf.h5,/dodrio/scratch/projects/starting_2025_097/autoCAS4HE_built/autoCAS4HE/tests/autocas/external_scf/Po2_scaling_test/po2_001.scf.h5,/dodrio/scratch/projects/starting_2025_097/autoCAS4HE_built/autoCAS4HE/tests/autocas/external_scf/Po2_scaling_test/po2_003.scf.h5,/dodrio/scratch/projects/starting_2025_097/autoCAS4HE_built/autoCAS4HE/tests/autocas/external_scf/Po2_scaling_test/po2_004.scf.h5,/dodrio/scratch/projects/starting_2025_097/autoCAS4HE_built/autoCAS4HE/tests/autocas/external_scf/Po2_scaling_test/po2_005.scf.h5,/dodrio/scratch/projects/starting_2025_097/autoCAS4HE_built/autoCAS4HE/tests/autocas/external_scf/Po2_scaling_test/po2_007.scf.h5,/dodrio/scratch/projects/starting_2025_097/autoCAS4HE_built/autoCAS4HE/tests/autocas/external_scf/Po2_scaling_test/po2_009.scf.h5,/dodrio/scratch/projects/starting_2025_097/autoCAS4HE_built/autoCAS4HE/tests/autocas/external_scf/Po2_scaling_test/po2_011.scf.h5,/dodrio/scratch/projects/starting_2025_097/autoCAS4HE_built/autoCAS4HE/tests/autocas/external_scf/Po2_scaling_test/po2_013.scf.h5,/dodrio/scratch/projects/starting_2025_097/autoCAS4HE_built/autoCAS4HE/tests/autocas/external_scf/Po2_scaling_test/po2_015.scf.h5,/dodrio/scratch/projects/starting_2025_097/autoCAS4HE_built/autoCAS4HE/tests/autocas/external_scf/Po2_scaling_test/po2_017.scf.h5,/dodrio/scratch/projects/starting_2025_097/autoCAS4HE_built/autoCAS4HE/tests/autocas/external_scf/Po2_scaling_test/po2_019.scf.h5,/dodrio/scratch/projects/starting_2025_097/autoCAS4HE_built/autoCAS4HE/tests/autocas/external_scf/Po2_scaling_test/po2_021.scf.h5,/dodrio/scratch/projects/starting_2025_097/autoCAS4HE_built/autoCAS4HE/tests/autocas/external_scf/Po2_scaling_test/po2_023.scf.h5,/dodrio/scratch/projects/starting_2025_097/autoCAS4HE_built/autoCAS4HE/tests/autocas/external_scf/Po2_scaling_test/po2_024.scf.h5 -b ANO-RCC-VDZP -m DMRGSCF po2_000.xyz po2_001.xyz po2_003.xyz po2_004.xyz po2_005.xyz po2_007.xyz po2_009.xyz po2_011.xyz po2_013.xyz po2_015.xyz po2_017.xyz po2_019.xyz po2_021.xyz po2_023.xyz po2_024.xyz"
	User time (seconds): 131.11
	System time (seconds): 3.79
	Percent of CPU this job got: 70%
	Elapsed (wall clock) time (h:mm:ss or m:ss): 3:11.83
	Average shared text size (kbytes): 0
	Average unshared data size (kbytes): 0
	Average stack size (kbytes): 0
	Average total size (kbytes): 0
	Maximum resident set size (kbytes): 599304
	Average resident set size (kbytes): 0
	Major (requiring I/O) page faults: 2756
	Minor (reclaiming a frame) page faults: 111830
	Voluntary context switches: 30131
	Involuntary context switches: 132538
	Swaps: 0
	File system inputs: 395728
	File system outputs: 418472
	Socket messages sent: 0
	Socket messages received: 0
	Signals delivered: 0
	Page size (bytes): 4096
	Exit status: 1

Results appended to scaling_results.csv
Format: n_geom,exit_code,wall_time_s,peak_rss_kb
