   This run of MOLCAS is using the pymolcas driver

                             OPE
                             OPE          NMOL  CASOP  ENMOLC A   SO
                 OPE        NMOLC        AS  OP EN  MO LC     AS  OP
                OPENM       OL CA        SO  PE NM  OL CA     SOP EN
                OP EN      MO   LC       AS  OP ENMOL  CASO   PENMOL
                OP  EN     MO   LC       AS  OP EN     MO     LC ASO
               OP   E  NMOL  C  AS       OP  EN MO     LC     AS  OP
               OP  E   NMO   LC AS        OPEN  MO     LCASOP EN   M
               O  PEN   MO  LCA  SO
            OPE   NMO   L   CAS    OP
        OPENMOL  CASOP     ENMOL   CASOPE
     OPENMOLCA   SOPENMOLCASOPEN   MOLCASOPE
    OPENMOLCAS   OP           EN   MOL    CAS
    OPENMOLCAS       OP  ENM        O     LCA
    OPENMOLCAS    OPEN  MOLCASO     P  E  NMO
    OPENMOLCAS     OP               E  N  MOL
    OPENMOLCA   SO           PENM   O  L  CAS    OPEN    MO    LCAS
    OPENMOLCA   SOP           ENM   O  L  CAS   OP  EN  MOLC  AS   O
    OPENMOLCA   SOPE           NM      O  LCA   S      OP  EN MO
    OPENMOLC                AS         O  PEN   M      OL  CA  SOPE
    OPENMO        LCASOPE  NMOL        C  ASO   P      ENMOLC     AS
    OPE     NMO      LCA  SO     P     E   NM   OL  CA SO  PE N   MO
          OPENMOLCA            SOPE   NMO        LCAS  O    P  ENMO
     OPENMOLCASOPENMOLCASOPENMOLCASOPENMOLCA
        OPENMOLCASOPENMOLCASOPENMOLCASOPE
            OPENMOLCASOPENMOLCASOPENM
               OPENMOLCASOPENMOLCA        version: v25.06 ?
                   OPENMOLCASO
                       OPE                tag:

 OpenMolcas is free software; you can redistribute it and/or modify it
 under the terms of the GNU Lesser General Public License version 2.1.
 OpenMolcas is distributed in the hope that it will be useful, but it
 is provided "as is" and without any express or implied warranties.
 For more details see the full text of the license in the file
 LICENSE or in <http://www.gnu.org/licenses/>.

                 Copyright (C) The OpenMolcas Authors
           For the author list and the recommended citation,
                   consult the file CONTRIBUTORS.md

           *************************************************
           * pymolcas version py2.29                       *
           *   build 637753c454b0e8fef9459a9b878b37a5      *
           *   (after the EMIL interpreter by V. Veryazov) *
           *************************************************

configuration info
------------------
Host name: node5385.dodrio.os (Linux)
C Compiler ID: IntelLLVM
C flags: -O2 -march=core-avx2 -fp-model precise -std=gnu99 -qopenmp
Fortran Compiler ID: Intel
Fortran flags: -O2 -march=core-avx2 -fp-model precise  -fpp -i8 -heap-arrays -qopenmp
Definitions: _MOLCAS_;_I8_;_LINUX_
Parallel: OFF (GA=OFF)


   ---------------------------------------------------------------------------------------------------------------------------------------------------------------------------------------
  |
  |           Project: system_0
  |    Submitted from: /dodrio/scratch/projects/starting_2025_097/autoCAS4HE_built/autoCAS4HE/tests/autocas/external_scf/Po2_scaling_test_final_casscf/workdir_N02/autocas_project/final
  |      Scratch area: /dodrio/scratch/projects/starting_2025_097/autoCAS4HE_built/autoCAS4HE/tests/autocas/external_scf/Po2_scaling_test_final_casscf/workdir_N02/autocas_project/scratch
  |   Save outputs to: /dodrio/scratch/projects/starting_2025_097/autoCAS4HE_built/autoCAS4HE/tests/autocas/external_scf/Po2_scaling_test_final_casscf/workdir_N02/autocas_project/final
  |            Molcas: /readonly/dodrio/apps/RHEL9/zen3-ib/software/OpenMolcas/25.06-iomkl-2023a-DMRG-no-MPI
  |
  | Scratch area is NOT empty
  |
  |    MOLCAS_DRIVER = /readonly/dodrio/apps/RHEL9/zen3-ib/software/OpenMolcas/25.06-iomkl-2023a-DMRG-no-MPI/pymolcas
  |    MOLCAS_MOLDEN = YES
  |    MOLCAS_NPROCS = 1
  |     MOLCAS_PRINT = DEBUG
  |    MOLCAS_SOURCE = /readonly/dodrio/apps/RHEL9/zen3-ib/software/OpenMolcas/25.06-iomkl-2023a-DMRG-no-MPI
  | MOLCAS_STRUCTURE = 0
  |   MOLCAS_THREADS = 1
  |
   ---------------------------------------------------------------------------------------------------------------------------------------------------------------------------------------

++ ---------   Input file   ---------

&RASSCF
  SPIN    = 1
  NACTEL  = 12
  FILEORB = /dodrio/scratch/projects/starting_2025_097/autoCAS4HE_built/autoCAS4HE/tests/autocas/external_scf/Po2_scaling_test_final_casscf/workdir_N02/autocas_project/final/system_0.scf.h5_sel_sel
  TYPEINDEX

-- ----------------------------------

*** symbolic link created: INPORB -> system_0.RasOrb
--- Start Module: rasscf at Mon Feb  2 17:48:30 2026 ---
 
()()()()()()()()()()()()()()()()()()()()()()()()()()()()()()()()()()()()()()()()()()()()()()()()()()

                                              &RASSCF

                                   only a single process is used
                        available to each process: 12 GB of memory, 1 thread
                                            pid: 4187677
()()()()()()()()()()()()()()()()()()()()()()()()()()()()()()()()()()()()()()()()()()()()()()()()()()
 
  SetPrLev: Print levels have been set to
   Global print level IPRGLB=                     4
   Individual sections print levels, IPRLOC:
     4    4    4    4    4    4    4
  Scanning the input for keywords:
  Rewinding LUInput=                    99
  OK after rewind.
  Reading a line...
  '&RASSCF                                                          ...'
  Reading a line...
  'SPIN                                                             ...'
  Understood keyword 'SPIN'
  Reading a line...
  '1                                                                ...'
  Reading a line...
  'NACTEL                                                           ...'
  Understood keyword 'NACT'
  Reading a line...
  '12                                                               ...'
  Reading a line...
  'FILEORB                                                          ...'
  Understood keyword 'FILE'
  Reading a line...
  '/dodrio/scratch/projects/starting_2025_097/autoCAS4HE_built/auto ...'
  Reading a line...
  'TYPEINDEX                                                        ...'
  Understood keyword 'TYPE'
  Reading a line...
  'End of input                                                     ...'
  Understood keyword 'END '
  Trace of input processing in PROC_INP:
  Valence-Bond flag IfVB=                     0
  Check if VB keyword was given.
  Inquire about RUNFILE.
  Yes, there is one.
  The following information exists on runfile:
  Nr of symmetries, NSYM:                     1
  Nr of basis functions/symmetry:
   136
  Where to read orbitals? 
  Reading file name for start orbitals.
  Calling fileorb with filename=
 /dodrio/scratch/projects/starting_2025_097/autoCAS4HE_built/autoCAS4HE/tests/au
 tocas/external_scf/Po2_scaling_test_final_casscf/workdir_N02/autocas_project/fi
 nal/system_0.scf.h5_se
  StartOrbFile=
 /dodrio/scratch/projects/starting_2025_097/autoCAS4HE_built/autoCAS4HE/tests/au
 tocas/external_scf/Po2_scaling_test_final_casscf/workdir_N02/autocas_project/fi
 nal/system_0.scf.h5_se                                                         
                    
  Present name of JOBIPH file is JOBIPH  
  Name of JOBIPH file is
 JOBIPH  
  Orbital print levels are
    for energy, PRETHR=   999999.000000000     
    for occup , PROTHR=  -1.00000000000000     
  Orbital listing flag is: DEFAULT 
  Orbital appearance flag: DEFAULT 
  Max nr of state-specific orbital files is                    100
  OUTORBITALS command specified orbital type                      1
  Meaning: Average
  Purify=NO      
  Check if FUNCtional was requested.
  Check if CIONLY case.
  Check if ROtSTate case.
  Check if XMSI case.
  Check if CMSI case.
  Check for CIROOTS command.
  Check for CISELECT command.
  Check for input source of orbitals.
 KeyCORE,KeyJOBI,KeyLUMO: F F T
 KeyCORE,KeyJOBI,KeyLUMO: F F T
  LUMORB command was used.
  Name of orbital file, StartOrbFile=
 /dodrio/scratch/projects/starting_2025_097/autoCAS4HE_built/autoCAS4HE/tests/au
 tocas/external_scf/Po2_scaling_test_final_casscf/workdir_N02/autocas_project/fi
 nal/system_0.scf.h5_se                                                         
                    
 ###############################################################################
 ###############################################################################
 ###                                                                         ###
 ###                                                                         ###
 ###    WARNING: LUMORB input error.                                         ###
 ###                                                                         ###
 ###                                                                         ###
 ###############################################################################
 ###############################################################################
  Keyword LUMORB used with file name StartOrbFile=
 /dodrio/scratch/projects/starting_2025_097/autoCAS4HE_built/autoCAS4HE/tests/au
 tocas/external_scf/Po2_scaling_test_final_casscf/workdir_N02/autocas_project/fi
 nal/system_0.scf.h5_se                                                         
                    
  but that file cannot be used. Perhaps it does
  not exist?
  The INVEC    code is now                     2
  The iOrbData code is now                     0
  Was TYPEINDEX requested?
  TYPEINDEX command was used.
  The size of orbital spaces should be read from
  typeindex in starting orbital file.
  Typeindex cannot be read!
  The iOrbData code is now                     0
  No explicit orbital specs in user input.
  This is not a CIRESTART case, so take them from
  the RUNFILE.
  The iOrbData code is now                     2
  Effective nuclear charge is TEffNChrg=   168.000000000000     
  Set TotChrg=  0.000000000000000E+000
  NACTEL keyword was given.
  NACTEL,NHOLE1,NELEC3:                    12                     0
                     0
  TotChrg=  0.000000000000000E+000
  Compute NActEl from  other data:
      TEffNChrg=   168.000000000000     
        TotChrg=  0.000000000000000E+000
        NISHT  =                    78
        NFROT  =                     0
  Resulting NActEl=                    12
  Determine spin value:
  SPIN command was given.
  Spin multiplicity is                      1
   i.e. SPIN=  0.000000000000000E+000
  State symmetry STSYM=                     1
  QUNE is enabled by default.
  Check if NOCALC case.
  Check if SAVE_EXP case.
  Check if EXPAND case.
  After 100 CONTINUE.
  Check if CI-Restart.
  Initialize seward.
  Call ChkInp.
  Call GugaCtl
  Construct the determinant tables.
  Largest block of strings with given symmetry and type                    70
 DETCTL : MXCJ,MXCIJA,MXCIJB,MXCIJAB,MXSXBL                 12544
                125440                125440                     0
                  1344
  MXADKBLK, MXADKBLK_AS                   448                   448
  Space for two resolution matrices                 250880
  Normal exit from PROC_INP.
 
      Header of the ONEINT file:
      --------------------------
      
      Integrals generated by Gateway/Seward, Mon Feb  2 17:40:28 2026
 
 
      OrdInt status: non-squared
 
 
      Cartesian coordinates in angstrom:
      -----------------------------------------------------
      No.  Label        X            Y            Z        
      -----------------------------------------------------
       1   PO1       -1.25000000   0.00000000   0.00000000
       2   PO2        1.25000000   0.00000000   0.00000000
      -----------------------------------------------------
      Nuclear repulsion energy = 1493.54975904
 
++    Wave function specifications:
      -----------------------------
 
      Number of closed shell electrons         156
      Number of electrons in active shells      12
      Max number of holes in RAS1 space          0
      Max nr of electrons in RAS3 space          0
      Number of inactive orbitals               78
      Number of active orbitals                  8
      Number of secondary orbitals              50
      Spin quantum number                      0.0
      State symmetry                             1
--
 
++    Orbital specifications:
      -----------------------
 
      Symmetry species                           1
                                                 a
      Frozen orbitals                            0
      Inactive orbitals                         78
      Active orbitals                            8
      RAS1 orbitals                              0
      RAS2 orbitals                              8
      RAS3 orbitals                              0
      Secondary orbitals                        50
      Deleted orbitals                           0
      Number of basis functions                136
--
 
++    CI expansion specifications:
      ----------------------------
 
      Number of CSFs                           336
      Number of determinants                   406
      Number of root(s) required                 1
      Root chosen for geometry opt.              1
      CI root used                               1
         
      highest root included in the CI            1
      max. size of the explicit Hamiltonian    200
--
 
++    Optimization specifications:
      ----------------------------
 
      RASSCF algorithm: LK Cholesky
      Maximum number of macro iterations       200
      Maximum number of SX iterations          100
      Threshold for RASSCF energy            1.000E-08
      Threshold for max MO rotation          1.000E-01
      Threshold for max BLB element          1.000E-04
      Level shift parameter                  5.000E-01
      Make Quasi-Newton update
--
 
  Entering READVC          
 RdVec: File 
 /dodrio/scratch/projects/starting_2025_097/autoCAS4HE_built/autoCAS4HE/tests/au
 tocas/external_scf/Po2_scaling_test_final_casscf/workdir_N02/autocas_project/fi
 nal/system_0.scf.h5_se not found!
--- Stop Module: rasscf at Mon Feb  2 17:48:31 2026 /rc=_RC_FLOATING_EXCEPTION_ ---

.############################.
.# Floating point exception #.
.############################.

    Timing: Wall=0.60 User=0.10 System=0.17
