#!/bin/bash
# Se2 DKH2 relativistic HF calculation
# Generated by generate_dimer_tests.sh
#
#PBS -N se2_dkh2
#PBS -A 2025_127
#PBS -l nodes=1:ppn=8
#PBS -l walltime=02:00:00
#PBS -l mem=32gb
#PBS -M joachim.scheerlinck@ugent.be
#PBS -m e

# ==============================================================================
# Setup environment
# ==============================================================================
PROJECT="starting_2025_097"
INSTALL_DIR="/dodrio/scratch/projects/${PROJECT}/autoCAS4HE_built/autoCAS4HE"
source ${INSTALL_DIR}/setup_hortense.sh
export MOLCAS_WORKDIR=$(pwd)

cd $PBS_O_WORKDIR

echo "=============================================="
echo "  Se2 DKH2 Relativistic HF Calculation"
echo "=============================================="
echo "Working directory: $(pwd)"
echo "Date: $(date)"
echo ""

# ==============================================================================
# Run OpenMolcas SCF for both geometries
# ==============================================================================
mkdir -p se2_0_workdir se2_1_workdir

# Geometry 0 (equilibrium)
echo "Running Se2 geometry 0 (equilibrium)..."
cd se2_0_workdir
cp ../se2_0.xyz .
cp ../se2_0_scf.input .
export MOLCAS_WORKDIR=$(pwd)/scratch_0
mkdir -p $MOLCAS_WORKDIR
pymolcas se2_0_scf.input > se2_0_scf.log 2>&1
if [ -f "se2_0_scf/se2_0_scf.scf.h5" ]; then
    cp se2_0_scf/se2_0_scf.scf.h5 ../se2_0.scf.h5
    echo "  Created se2_0.scf.h5"
else
    echo "WARNING: Could not find scf.h5 for geometry 0"
fi
cd ..

# Geometry 1 (stretched)
echo "Running Se2 geometry 1 (stretched)..."
cd se2_1_workdir
cp ../se2_1.xyz .
cp ../se2_1_scf.input .
export MOLCAS_WORKDIR=$(pwd)/scratch_1
mkdir -p $MOLCAS_WORKDIR
pymolcas se2_1_scf.input > se2_1_scf.log 2>&1
if [ -f "se2_1_scf/se2_1_scf.scf.h5" ]; then
    cp se2_1_scf/se2_1_scf.scf.h5 ../se2_1.scf.h5
    echo "  Created se2_1.scf.h5"
else
    echo "WARNING: Could not find scf.h5 for geometry 1"
fi
cd ..

# ==============================================================================
# Run IBO distribution analysis
# ==============================================================================
echo ""
echo "Running IBO distribution analysis..."
SCRIPT_DIR="/dodrio/scratch/projects/starting_2025_097/autoCAS4HE_built/autoCAS4HE/scripts"
if [ -f "se2_0.scf.h5" ]; then
    python3 ${SCRIPT_DIR}/IBO_distr.py se2_0.scf.h5 --element se
fi

echo ""
echo "=============================================="
echo "  Se2 calculation completed!"
echo "=============================================="
echo "Date: $(date)"
