[Molden Format]
[N_Atoms]
                     2
[Atoms] (AU)
N1          1      7           0.00000000      0.00000000      0.00000000
N2          2      7           0.00000000      0.00000000      2.07869874
[5D]
[Charge] (Mulliken)
  0.000000000000000E+000
  0.000000000000000E+000
[GTO] (AU)
   1
   s  14
  7.476171500E+04  1.182599996E-04
  1.112365400E+04  5.172899983E-04
  2.512685700E+03  2.266659992E-03
  7.037772900E+02  9.145289970E-03
  2.254787900E+02  3.239342989E-02
  7.961581000E+01  9.770792967E-02
  3.023728300E+01  2.317036792E-01
  1.226362200E+01  3.768898887E-01
  5.265086000E+00  3.177420689E-01
  2.333471000E+00  8.211308973E-02
  9.018560000E-01  3.312089989E-03
  3.583360000E-01  3.720819988E-03
  1.410930000E-01  3.165419989E-03
  4.938300000E-02  4.595799985E-04
   s  14
  7.476171500E+04 -2.707000010E-05
  1.112365400E+04 -1.183700004E-04
  2.512685700E+03 -5.203800020E-04
  7.037772900E+02 -2.102930008E-03
  2.254787900E+02 -7.568200028E-03
  7.961581000E+01 -2.346767009E-02
  3.023728300E+01 -6.042901023E-02
  1.226362200E+01 -1.170549104E-01
  5.265086000E+00 -1.555321506E-01
  2.333471000E+00 -2.468935009E-02
  9.018560000E-01  3.625054514E-01
  3.583360000E-01  5.550845021E-01
  1.410930000E-01  2.148376908E-01
  4.938300000E-02  8.983850034E-03
   s  14
  7.476171500E+04  1.875999998E-05
  1.112365400E+04  8.117999992E-05
  2.512685700E+03  3.658999997E-04
  7.037772900E+02  1.443039999E-03
  2.254787900E+02  5.531839995E-03
  7.961581000E+01  1.724358998E-02
  3.023728300E+01  5.279547995E-02
  1.226362200E+01  1.152881299E-01
  5.265086000E+00  2.352593898E-01
  2.333471000E+00 -4.896386995E-02
  9.018560000E-01 -1.023217739E+00
  3.583360000E-01 -1.481586599E-01
  1.410930000E-01  1.021557539E+00
  4.938300000E-02  1.724018298E-01
   p   9
  1.266665700E+02  1.233630000E-03
  2.983738900E+01  9.493409996E-03
  9.394038000E+00  4.293961998E-02
  3.405104000E+00  1.362925399E-01
  1.350000000E+00  2.921362499E-01
  5.576960000E-01  3.887887598E-01
  2.324490000E-01  2.946801399E-01
  9.426400000E-02  8.012875997E-02
  3.299200000E-02  5.405199998E-04
   p   9
  1.266665700E+02 -1.466229998E-03
  2.983738900E+01 -1.182147998E-02
  9.394038000E+00 -4.983125993E-02
  3.405104000E+00 -1.730904198E-01
  1.350000000E+00 -4.732370794E-01
  5.576960000E-01 -2.055113197E-01
  2.324490000E-01  5.910379792E-01
  9.426400000E-02  4.511796794E-01
  3.299200000E-02  1.367471998E-02
   d   4
  2.750000000E+00  1.473016505E-01
  9.625000000E-01  5.502182618E-01
  3.368750000E-01  4.452560414E-01
  1.179060000E-01  4.942869016E-02
 
   2
   s  14
  7.476171500E+04  1.182599996E-04
  1.112365400E+04  5.172899983E-04
  2.512685700E+03  2.266659992E-03
  7.037772900E+02  9.145289970E-03
  2.254787900E+02  3.239342989E-02
  7.961581000E+01  9.770792967E-02
  3.023728300E+01  2.317036792E-01
  1.226362200E+01  3.768898887E-01
  5.265086000E+00  3.177420689E-01
  2.333471000E+00  8.211308973E-02
  9.018560000E-01  3.312089989E-03
  3.583360000E-01  3.720819988E-03
  1.410930000E-01  3.165419989E-03
  4.938300000E-02  4.595799985E-04
   s  14
  7.476171500E+04 -2.707000010E-05
  1.112365400E+04 -1.183700004E-04
  2.512685700E+03 -5.203800020E-04
  7.037772900E+02 -2.102930008E-03
  2.254787900E+02 -7.568200028E-03
  7.961581000E+01 -2.346767009E-02
  3.023728300E+01 -6.042901023E-02
  1.226362200E+01 -1.170549104E-01
  5.265086000E+00 -1.555321506E-01
  2.333471000E+00 -2.468935009E-02
  9.018560000E-01  3.625054514E-01
  3.583360000E-01  5.550845021E-01
  1.410930000E-01  2.148376908E-01
  4.938300000E-02  8.983850034E-03
   s  14
  7.476171500E+04  1.875999998E-05
  1.112365400E+04  8.117999992E-05
  2.512685700E+03  3.658999997E-04
  7.037772900E+02  1.443039999E-03
  2.254787900E+02  5.531839995E-03
  7.961581000E+01  1.724358998E-02
  3.023728300E+01  5.279547995E-02
  1.226362200E+01  1.152881299E-01
  5.265086000E+00  2.352593898E-01
  2.333471000E+00 -4.896386995E-02
  9.018560000E-01 -1.023217739E+00
  3.583360000E-01 -1.481586599E-01
  1.410930000E-01  1.021557539E+00
  4.938300000E-02  1.724018298E-01
   p   9
  1.266665700E+02  1.233630000E-03
  2.983738900E+01  9.493409996E-03
  9.394038000E+00  4.293961998E-02
  3.405104000E+00  1.362925399E-01
  1.350000000E+00  2.921362499E-01
  5.576960000E-01  3.887887598E-01
  2.324490000E-01  2.946801399E-01
  9.426400000E-02  8.012875997E-02
  3.299200000E-02  5.405199998E-04
   p   9
  1.266665700E+02 -1.466229998E-03
  2.983738900E+01 -1.182147998E-02
  9.394038000E+00 -4.983125993E-02
  3.405104000E+00 -1.730904198E-01
  1.350000000E+00 -4.732370794E-01
  5.576960000E-01 -2.055113197E-01
  2.324490000E-01  5.910379792E-01
  9.426400000E-02  4.511796794E-01
  3.299200000E-02  1.367471998E-02
   d   4
  2.750000000E+00  1.473016505E-01
  9.625000000E-01  5.502182618E-01
  3.368750000E-01  4.452560414E-01
  1.179060000E-01  4.942869016E-02
 
[MO]
Sym=     1a  
Ene=   -15.6630
Spin= Alpha
Occup=    2.00000
   1         0.70621571
   2         0.00288001
   3        -0.00000000
   4         0.00000000
   5        -0.00000000
   6         0.00273277
   7         0.00000000
   8        -0.00000000
   9         0.00000000
  10         0.00000000
  11         0.00000000
  12        -0.00000000
  13         0.00000000
  14         0.00000000
  15         0.70621571
  16         0.00288001
  17         0.00000000
  18        -0.00000000
  19         0.00000000
  20        -0.00273277
  21        -0.00000000
  22         0.00000000
  23         0.00000000
  24        -0.00000000
  25         0.00000000
  26        -0.00000000
  27        -0.00000000
  28         0.00000000
Sym=     2a  
Ene=   -15.6240
Spin= Alpha
Occup=    2.00000
   1        -0.70711925
   2         0.00257385
   3        -0.00000000
   4        -0.00000000
   5         0.00000000
   6         0.00260202
   7         0.00000000
   8         0.00000000
   9        -0.00000000
  10         0.00000000
  11         0.00000000
  12         0.00000000
  13         0.00000000
  14        -0.00000000
  15         0.70711925
  16        -0.00257385
  17         0.00000000
  18        -0.00000000
  19        -0.00000000
  20         0.00260202
  21         0.00000000
  22        -0.00000000
  23        -0.00000000
  24         0.00000000
  25        -0.00000000
  26         0.00000000
  27        -0.00000000
  28         0.00000000
Sym=     3a  
Ene=    -1.5088
Spin= Alpha
Occup=    2.00000
   1        -0.05228299
   2         0.51862571
   3        -0.00000000
   4        -0.00000000
   5        -0.00000000
   6         0.16326859
   7        -0.00000000
   8         0.00000000
   9        -0.00000000
  10        -0.00000000
  11        -0.00000000
  12         0.00000000
  13         0.00000000
  14         0.00000000
  15        -0.05228299
  16         0.51862571
  17         0.00000000
  18         0.00000000
  19        -0.00000000
  20        -0.16326859
  21         0.00000000
  22        -0.00000000
  23        -0.00000000
  24         0.00000000
  25        -0.00000000
  26        -0.00000000
  27        -0.00000000
  28        -0.00000000
Sym=     4a  
Ene=    -0.8097
Spin= Alpha
Occup=    2.00000
   1         0.00555950
   2        -0.56988340
   3        -0.00000000
   4        -0.00000000
   5        -0.00000000
   6         0.39544346
   7        -0.00000000
   8        -0.00000000
   9        -0.00000000
  10        -0.00000000
  11        -0.00000000
  12        -0.00000000
  13         0.00000000
  14         0.00000000
  15        -0.00555950
  16         0.56988340
  17         0.00000000
  18         0.00000000
  19        -0.00000000
  20         0.39544346
  21         0.00000000
  22         0.00000000
  23        -0.00000000
  24         0.00000000
  25        -0.00000000
  26        -0.00000000
  27        -0.00000000
  28         0.00000000
Sym=     5a  
Ene=    -0.7566
Spin= Alpha
Occup=    2.00000
   1        -0.00000000
   2        -0.00000000
   3        -0.00000000
   4         0.60581523
   5        -0.10062409
   6        -0.00000000
   7         0.00000000
   8        -0.00000000
   9        -0.00000000
  10        -0.00000000
  11         0.00000000
  12        -0.00000000
  13         0.00000000
  14        -0.00000000
  15         0.00000000
  16         0.00000000
  17         0.00000000
  18         0.60581523
  19        -0.10062409
  20        -0.00000000
  21        -0.00000000
  22        -0.00000000
  23        -0.00000000
  24         0.00000000
  25         0.00000000
  26         0.00000000
  27         0.00000000
  28         0.00000000
Sym=     6a  
Ene=    -0.7566
Spin= Alpha
Occup=    2.00000
   1         0.00000000
   2        -0.00000000
   3        -0.00000000
   4         0.10062409
   5         0.60581523
   6         0.00000000
   7         0.00000000
   8         0.00000000
   9         0.00000000
  10        -0.00000000
  11         0.00000000
  12         0.00000000
  13         0.00000000
  14        -0.00000000
  15        -0.00000000
  16         0.00000000
  17        -0.00000000
  18         0.10062409
  19         0.60581523
  20         0.00000000
  21        -0.00000000
  22        -0.00000000
  23         0.00000000
  24        -0.00000000
  25         0.00000000
  26         0.00000000
  27        -0.00000000
  28        -0.00000000
Sym=     7a  
Ene=    -0.5650
Spin= Alpha
Occup=    2.00000
   1         0.04662807
   2         0.34370785
   3        -0.00000000
   4        -0.00000000
   5        -0.00000000
   6        -0.65852737
   7        -0.00000000
   8         0.00000000
   9        -0.00000000
  10        -0.00000000
  11        -0.00000000
  12         0.00000000
  13        -0.00000000
  14         0.00000000
  15         0.04662807
  16         0.34370785
  17         0.00000000
  18         0.00000000
  19         0.00000000
  20         0.65852737
  21         0.00000000
  22        -0.00000000
  23        -0.00000000
  24         0.00000000
  25        -0.00000000
  26         0.00000000
  27         0.00000000
  28         0.00000000
Sym=     8a  
Ene=    -0.3848
Spin= Alpha
Occup=    0.00000
   1         0.00000000
   2         0.00000000
   3         0.00000000
   4        -0.76009232
   5         0.40478908
   6         0.00000000
   7        -0.00000000
   8        -0.00000000
   9         0.00000000
  10         0.00000000
  11        -0.00000000
  12        -0.00000000
  13         0.00000000
  14         0.00000000
  15        -0.00000000
  16        -0.00000000
  17        -0.00000000
  18         0.76009232
  19        -0.40478908
  20         0.00000000
  21         0.00000000
  22         0.00000000
  23         0.00000000
  24         0.00000000
  25        -0.00000000
  26        -0.00000000
  27         0.00000000
  28         0.00000000
Sym=     9a  
Ene=    -0.3848
Spin= Alpha
Occup=    0.00000
   1        -0.00000000
   2        -0.00000000
   3        -0.00000000
   4        -0.40478908
   5        -0.76009232
   6        -0.00000000
   7         0.00000000
   8         0.00000000
   9        -0.00000000
  10        -0.00000000
  11         0.00000000
  12         0.00000000
  13         0.00000000
  14        -0.00000000
  15         0.00000000
  16         0.00000000
  17         0.00000000
  18         0.40478908
  19         0.76009232
  20        -0.00000000
  21        -0.00000000
  22        -0.00000000
  23        -0.00000000
  24        -0.00000000
  25         0.00000000
  26         0.00000000
  27         0.00000000
  28        -0.00000000
Sym=    10a  
Ene=    -0.1298
Spin= Alpha
Occup=    0.00000
   1         0.18796296
   2         1.27105117
   3         0.00000000
   4         0.00000000
   5         0.00000000
   6         1.10565347
   7        -0.00000000
   8        -0.00000000
   9         0.00000000
  10         0.00000000
  11         0.00000000
  12        -0.00000000
  13        -0.00000000
  14        -0.00000000
  15        -0.18796296
  16        -1.27105117
  17        -0.00000000
  18        -0.00000000
  19         0.00000000
  20         1.10565347
  21        -0.00000000
  22        -0.00000000
  23         0.00000000
  24        -0.00000000
  25        -0.00000000
  26         0.00000000
  27         0.00000000
  28        -0.00000000
Sym=    11a  
Ene=     4.3618
Spin= Alpha
Occup=    0.00000
   1         0.76799909
   2         4.16942350
   3         1.63789462
   4        -0.00000000
   5        -0.00000000
   6         1.90387239
   7         0.00000000
   8         0.00000000
   9         1.72831027
  10         0.44474513
  11        -0.00000000
  12         0.00000000
  13         0.00000000
  14         0.00000000
  15        -0.76799909
  16        -4.16942350
  17        -1.63789462
  18         0.00000000
  19        -0.00000000
  20         1.90387239
  21         0.00000000
  22         0.00000000
  23         1.72831027
  24        -0.44474513
  25         0.00000000
  26        -0.00000000
  27         0.00000000
  28         0.00000000
Sym=    12a  
Ene=     5.0415
Spin= Alpha
Occup=    0.00000
   1         0.06324564
   2         0.27345340
   3        -0.15691888
   4        -0.00000000
   5         0.00000000
   6        -0.25919122
   7        -0.00000000
   8        -0.00000000
   9        -0.72385840
  10         0.17013512
  11        -0.00000000
  12         0.00000000
  13        -0.00000000
  14        -0.00000000
  15         0.06324564
  16         0.27345340
  17        -0.15691888
  18         0.00000000
  19        -0.00000000
  20         0.25919122
  21         0.00000000
  22        -0.00000000
  23         0.72385840
  24         0.17013512
  25        -0.00000000
  26        -0.00000000
  27        -0.00000000
  28        -0.00000000
Sym=    13a  
Ene=     5.0937
Spin= Alpha
Occup=    0.00000
   1         0.00000000
   2         0.00000000
   3        -0.00000000
   4         0.00009953
   5        -0.01148862
   6        -0.00000000
   7        -0.00433605
   8         0.50052954
   9        -0.00000000
  10         0.00000000
  11         0.00300446
  12        -0.34681765
  13        -0.00000000
  14         0.00000000
  15         0.00000000
  16         0.00000000
  17        -0.00000000
  18         0.00009953
  19        -0.01148862
  20         0.00000000
  21        -0.00433605
  22         0.50052954
  23         0.00000000
  24         0.00000000
  25        -0.00300446
  26         0.34681765
  27        -0.00000000
  28         0.00000000
Sym=    14a  
Ene=     5.0937
Spin= Alpha
Occup=    0.00000
   1        -0.00000000
   2        -0.00000000
   3        -0.00000000
   4        -0.01148862
   5        -0.00009953
   6        -0.00000000
   7         0.50052954
   8         0.00433605
   9        -0.00000000
  10        -0.00000000
  11        -0.34681765
  12        -0.00300446
  13         0.00000000
  14         0.00000000
  15         0.00000000
  16         0.00000000
  17         0.00000000
  18        -0.01148862
  19        -0.00009953
  20        -0.00000000
  21         0.50052954
  22         0.00433605
  23        -0.00000000
  24         0.00000000
  25         0.34681765
  26         0.00300446
  27         0.00000000
  28         0.00000000
Sym=    15a  
Ene=     5.2579
Spin= Alpha
Occup=    0.00000
   1        -0.00000000
   2        -0.00000000
   3        -0.00000000
   4         0.00000000
   5         0.00000000
   6        -0.00000000
   7         0.00000000
   8         0.00000000
   9        -0.00000000
  10        -0.00000000
  11         0.00000000
  12        -0.00000000
  13         0.62545033
  14         0.00000000
  15         0.00000000
  16         0.00000000
  17        -0.00000000
  18        -0.00000000
  19        -0.00000000
  20        -0.00000000
  21        -0.00000000
  22        -0.00000000
  23        -0.00000000
  24         0.00000000
  25         0.00000000
  26         0.00000000
  27         0.62545033
  28         0.00000000
Sym=    16a  
Ene=     5.2579
Spin= Alpha
Occup=    0.00000
   1        -0.00000000
   2         0.00000000
   3         0.00000000
   4         0.00000000
   5        -0.00000000
   6        -0.00000000
   7        -0.00000000
   8        -0.00000000
   9        -0.00000000
  10         0.00000000
  11        -0.00000000
  12        -0.00000000
  13        -0.00000000
  14         0.62545033
  15         0.00000000
  16         0.00000000
  17         0.00000000
  18        -0.00000000
  19         0.00000000
  20         0.00000000
  21         0.00000000
  22         0.00000000
  23         0.00000000
  24         0.00000000
  25        -0.00000000
  26        -0.00000000
  27        -0.00000000
  28         0.62545033
Sym=    17a  
Ene=     5.3277
Spin= Alpha
Occup=    0.00000
   1         0.00000000
   2         0.00000000
   3         0.00000000
   4        -0.18896583
   5        -0.62627312
   6         0.00000000
   7        -0.34189038
   8        -1.13309774
   9        -0.00000000
  10         0.00000000
  11        -0.05937083
  12        -0.19676763
  13         0.00000000
  14        -0.00000000
  15        -0.00000000
  16        -0.00000000
  17        -0.00000000
  18         0.18896583
  19         0.62627312
  20         0.00000000
  21         0.34189038
  22         1.13309774
  23         0.00000000
  24         0.00000000
  25        -0.05937083
  26        -0.19676763
  27         0.00000000
  28        -0.00000000
Sym=    18a  
Ene=     5.3277
Spin= Alpha
Occup=    0.00000
   1        -0.00000000
   2        -0.00000000
   3        -0.00000000
   4        -0.62627312
   5         0.18896583
   6         0.00000000
   7        -1.13309774
   8         0.34189038
   9         0.00000000
  10        -0.00000000
  11        -0.19676763
  12         0.05937083
  13         0.00000000
  14         0.00000000
  15         0.00000000
  16         0.00000000
  17        -0.00000000
  18         0.62627312
  19        -0.18896583
  20        -0.00000000
  21         1.13309774
  22        -0.34189038
  23        -0.00000000
  24        -0.00000000
  25        -0.19676763
  26         0.05937083
  27         0.00000000
  28         0.00000000
Sym=    19a  
Ene=     5.4930
Spin= Alpha
Occup=    0.00000
   1        -0.00400389
   2        -0.04319182
   3         0.59439966
   4        -0.00000000
   5         0.00000000
   6        -0.00138625
   7        -0.00000000
   8         0.00000000
   9        -0.31892111
  10        -0.00569586
  11        -0.00000000
  12         0.00000000
  13         0.00000000
  14        -0.00000000
  15        -0.00400389
  16        -0.04319182
  17         0.59439966
  18         0.00000000
  19        -0.00000000
  20         0.00138625
  21         0.00000000
  22        -0.00000000
  23         0.31892111
  24        -0.00569586
  25        -0.00000000
  26        -0.00000000
  27         0.00000000
  28         0.00000000
Sym=    20a  
Ene=     6.0340
Spin= Alpha
Occup=    0.00000
   1        -0.00000000
   2        -0.00000000
   3        -0.00000000
   4         0.02176953
   5         0.23932427
   6        -0.00000000
   7        -0.03070061
   8        -0.33750844
   9        -0.00000000
  10         0.00000000
  11        -0.04944427
  12        -0.54356768
  13        -0.00000000
  14         0.00000000
  15         0.00000000
  16         0.00000000
  17         0.00000000
  18         0.02176953
  19         0.23932427
  20        -0.00000000
  21        -0.03070061
  22        -0.33750844
  23         0.00000000
  24        -0.00000000
  25         0.04944427
  26         0.54356768
  27         0.00000000
  28         0.00000000
Sym=    21a  
Ene=     6.0340
Spin= Alpha
Occup=    0.00000
   1         0.00000000
   2         0.00000000
   3         0.00000000
   4         0.23932427
   5        -0.02176953
   6         0.00000000
   7        -0.33750844
   8         0.03070061
   9         0.00000000
  10        -0.00000000
  11        -0.54356768
  12         0.04944427
  13         0.00000000
  14        -0.00000000
  15        -0.00000000
  16        -0.00000000
  17        -0.00000000
  18         0.23932427
  19        -0.02176953
  20         0.00000000
  21        -0.33750844
  22         0.03070061
  23         0.00000000
  24         0.00000000
  25         0.54356768
  26        -0.04944427
  27        -0.00000000
  28        -0.00000000
Sym=    22a  
Ene=     6.1800
Spin= Alpha
Occup=    0.00000
   1        -0.00000000
   2        -0.00000000
   3        -0.00000000
   4         0.00000000
   5        -0.00000000
   6        -0.00000000
   7        -0.00000000
   8         0.00000000
   9        -0.00000000
  10         0.00000000
  11        -0.00000000
  12         0.00000000
  13        -0.83226907
  14         0.00000000
  15         0.00000000
  16         0.00000000
  17         0.00000000
  18         0.00000000
  19        -0.00000000
  20        -0.00000000
  21        -0.00000000
  22         0.00000000
  23        -0.00000000
  24        -0.00000000
  25         0.00000000
  26        -0.00000000
  27         0.83226907
  28        -0.00000000
Sym=    23a  
Ene=     6.1800
Spin= Alpha
Occup=    0.00000
   1        -0.00000000
   2        -0.00000000
   3        -0.00000000
   4         0.00000000
   5         0.00000000
   6        -0.00000000
   7        -0.00000000
   8        -0.00000000
   9        -0.00000000
  10         0.00000000
  11        -0.00000000
  12         0.00000000
  13        -0.00000000
  14        -0.83226907
  15         0.00000000
  16         0.00000000
  17         0.00000000
  18        -0.00000000
  19         0.00000000
  20        -0.00000000
  21         0.00000000
  22         0.00000000
  23        -0.00000000
  24         0.00000000
  25         0.00000000
  26        -0.00000000
  27         0.00000000
  28         0.83226907
Sym=    24a  
Ene=     7.2104
Spin= Alpha
Occup=    0.00000
   1         0.32291449
   2         2.09527062
   3         1.75497252
   4        -0.00000000
   5        -0.00000000
   6         0.76988919
   7        -0.00000000
   8        -0.00000000
   9         0.91874473
  10        -0.54291457
  11         0.00000000
  12        -0.00000000
  13        -0.00000000
  14        -0.00000000
  15        -0.32291449
  16        -2.09527062
  17        -1.75497252
  18        -0.00000000
  19         0.00000000
  20         0.76988919
  21         0.00000000
  22        -0.00000000
  23         0.91874473
  24         0.54291457
  25        -0.00000000
  26        -0.00000000
  27         0.00000000
  28         0.00000000
Sym=    25a  
Ene=     7.7047
Spin= Alpha
Occup=    0.00000
   1        -0.22642765
   2        -0.57938845
   3         0.33455776
   4         0.00000000
   5         0.00000000
   6         0.35338592
   7         0.00000000
   8         0.00000000
   9         0.77481704
  10         0.94153996
  11         0.00000000
  12         0.00000000
  13        -0.00000000
  14         0.00000000
  15        -0.22642765
  16        -0.57938845
  17         0.33455776
  18        -0.00000000
  19        -0.00000000
  20        -0.35338592
  21        -0.00000000
  22        -0.00000000
  23        -0.77481704
  24         0.94153996
  25         0.00000000
  26         0.00000000
  27        -0.00000000
  28        -0.00000000
Sym=    26a  
Ene=     7.7165
Spin= Alpha
Occup=    0.00000
   1         0.00000000
   2         0.00000000
   3        -0.00000000
   4        -0.14642023
   5         0.91994752
   6        -0.00000000
   7        -0.07612446
   8         0.47828439
   9        -0.00000000
  10        -0.00000000
  11        -0.19136317
  12         1.20232071
  13         0.00000000
  14        -0.00000000
  15         0.00000000
  16         0.00000000
  17        -0.00000000
  18         0.14642023
  19        -0.91994752
  20         0.00000000
  21         0.07612446
  22        -0.47828439
  23         0.00000000
  24        -0.00000000
  25        -0.19136317
  26         1.20232071
  27        -0.00000000
  28        -0.00000000
Sym=    27a  
Ene=     7.7165
Spin= Alpha
Occup=    0.00000
   1         0.00000000
   2         0.00000000
   3        -0.00000000
   4         0.91994752
   5         0.14642023
   6        -0.00000000
   7         0.47828439
   8         0.07612446
   9        -0.00000000
  10        -0.00000000
  11         1.20232071
  12         0.19136317
  13         0.00000000
  14        -0.00000000
  15         0.00000000
  16         0.00000000
  17        -0.00000000
  18        -0.91994752
  19        -0.14642023
  20         0.00000000
  21        -0.47828439
  22        -0.07612446
  23         0.00000000
  24        -0.00000000
  25         1.20232071
  26         0.19136317
  27         0.00000000
  28        -0.00000000
Sym=    28a  
Ene=    10.4750
Spin= Alpha
Occup=    0.00000
   1        -1.44367236
   2        -7.73115838
   3        -3.65155765
   4        -0.00000000
   5        -0.00000000
   6        -3.86885348
   7        -0.00000000
   8        -0.00000000
   9        -1.96726777
  10        -1.27446894
  11        -0.00000000
  12        -0.00000000
  13        -0.00000000
  14         0.00000000
  15         1.44367236
  16         7.73115838
  17         3.65155765
  18         0.00000000
  19         0.00000000
  20        -3.86885348
  21        -0.00000000
  22         0.00000000
  23        -1.96726777
  24         1.27446894
  25        -0.00000000
  26        -0.00000000
  27         0.00000000
  28        -0.00000000
