[Molden Format]
[N_Atoms]
                     2
[Atoms] (AU)
N1          1      7           0.00000000      0.00000000      0.00000000
N2          2      7           0.00000000      0.00000000      2.07869874
[5D]
[Charge] (Mulliken)
 -2.683070186444425E-004
  2.683070186346725E-004
[GTO] (AU)
   1
   s  14
  7.476171500E+04  1.182599996E-04
  1.112365400E+04  5.172899983E-04
  2.512685700E+03  2.266659992E-03
  7.037772900E+02  9.145289970E-03
  2.254787900E+02  3.239342989E-02
  7.961581000E+01  9.770792967E-02
  3.023728300E+01  2.317036792E-01
  1.226362200E+01  3.768898887E-01
  5.265086000E+00  3.177420689E-01
  2.333471000E+00  8.211308973E-02
  9.018560000E-01  3.312089989E-03
  3.583360000E-01  3.720819988E-03
  1.410930000E-01  3.165419989E-03
  4.938300000E-02  4.595799985E-04
   s  14
  7.476171500E+04 -2.707000010E-05
  1.112365400E+04 -1.183700004E-04
  2.512685700E+03 -5.203800020E-04
  7.037772900E+02 -2.102930008E-03
  2.254787900E+02 -7.568200028E-03
  7.961581000E+01 -2.346767009E-02
  3.023728300E+01 -6.042901023E-02
  1.226362200E+01 -1.170549104E-01
  5.265086000E+00 -1.555321506E-01
  2.333471000E+00 -2.468935009E-02
  9.018560000E-01  3.625054514E-01
  3.583360000E-01  5.550845021E-01
  1.410930000E-01  2.148376908E-01
  4.938300000E-02  8.983850034E-03
   s  14
  7.476171500E+04  1.875999998E-05
  1.112365400E+04  8.117999992E-05
  2.512685700E+03  3.658999997E-04
  7.037772900E+02  1.443039999E-03
  2.254787900E+02  5.531839995E-03
  7.961581000E+01  1.724358998E-02
  3.023728300E+01  5.279547995E-02
  1.226362200E+01  1.152881299E-01
  5.265086000E+00  2.352593898E-01
  2.333471000E+00 -4.896386995E-02
  9.018560000E-01 -1.023217739E+00
  3.583360000E-01 -1.481586599E-01
  1.410930000E-01  1.021557539E+00
  4.938300000E-02  1.724018298E-01
   p   9
  1.266665700E+02  1.233630000E-03
  2.983738900E+01  9.493409996E-03
  9.394038000E+00  4.293961998E-02
  3.405104000E+00  1.362925399E-01
  1.350000000E+00  2.921362499E-01
  5.576960000E-01  3.887887598E-01
  2.324490000E-01  2.946801399E-01
  9.426400000E-02  8.012875997E-02
  3.299200000E-02  5.405199998E-04
   p   9
  1.266665700E+02 -1.466229998E-03
  2.983738900E+01 -1.182147998E-02
  9.394038000E+00 -4.983125993E-02
  3.405104000E+00 -1.730904198E-01
  1.350000000E+00 -4.732370794E-01
  5.576960000E-01 -2.055113197E-01
  2.324490000E-01  5.910379792E-01
  9.426400000E-02  4.511796794E-01
  3.299200000E-02  1.367471998E-02
   d   4
  2.750000000E+00  1.473016505E-01
  9.625000000E-01  5.502182618E-01
  3.368750000E-01  4.452560414E-01
  1.179060000E-01  4.942869016E-02
 
   2
   s  14
  7.476171500E+04  1.182599996E-04
  1.112365400E+04  5.172899983E-04
  2.512685700E+03  2.266659992E-03
  7.037772900E+02  9.145289970E-03
  2.254787900E+02  3.239342989E-02
  7.961581000E+01  9.770792967E-02
  3.023728300E+01  2.317036792E-01
  1.226362200E+01  3.768898887E-01
  5.265086000E+00  3.177420689E-01
  2.333471000E+00  8.211308973E-02
  9.018560000E-01  3.312089989E-03
  3.583360000E-01  3.720819988E-03
  1.410930000E-01  3.165419989E-03
  4.938300000E-02  4.595799985E-04
   s  14
  7.476171500E+04 -2.707000010E-05
  1.112365400E+04 -1.183700004E-04
  2.512685700E+03 -5.203800020E-04
  7.037772900E+02 -2.102930008E-03
  2.254787900E+02 -7.568200028E-03
  7.961581000E+01 -2.346767009E-02
  3.023728300E+01 -6.042901023E-02
  1.226362200E+01 -1.170549104E-01
  5.265086000E+00 -1.555321506E-01
  2.333471000E+00 -2.468935009E-02
  9.018560000E-01  3.625054514E-01
  3.583360000E-01  5.550845021E-01
  1.410930000E-01  2.148376908E-01
  4.938300000E-02  8.983850034E-03
   s  14
  7.476171500E+04  1.875999998E-05
  1.112365400E+04  8.117999992E-05
  2.512685700E+03  3.658999997E-04
  7.037772900E+02  1.443039999E-03
  2.254787900E+02  5.531839995E-03
  7.961581000E+01  1.724358998E-02
  3.023728300E+01  5.279547995E-02
  1.226362200E+01  1.152881299E-01
  5.265086000E+00  2.352593898E-01
  2.333471000E+00 -4.896386995E-02
  9.018560000E-01 -1.023217739E+00
  3.583360000E-01 -1.481586599E-01
  1.410930000E-01  1.021557539E+00
  4.938300000E-02  1.724018298E-01
   p   9
  1.266665700E+02  1.233630000E-03
  2.983738900E+01  9.493409996E-03
  9.394038000E+00  4.293961998E-02
  3.405104000E+00  1.362925399E-01
  1.350000000E+00  2.921362499E-01
  5.576960000E-01  3.887887598E-01
  2.324490000E-01  2.946801399E-01
  9.426400000E-02  8.012875997E-02
  3.299200000E-02  5.405199998E-04
   p   9
  1.266665700E+02 -1.466229998E-03
  2.983738900E+01 -1.182147998E-02
  9.394038000E+00 -4.983125993E-02
  3.405104000E+00 -1.730904198E-01
  1.350000000E+00 -4.732370794E-01
  5.576960000E-01 -2.055113197E-01
  2.324490000E-01  5.910379792E-01
  9.426400000E-02  4.511796794E-01
  3.299200000E-02  1.367471998E-02
   d   4
  2.750000000E+00  1.473016505E-01
  9.625000000E-01  5.502182618E-01
  3.368750000E-01  4.452560414E-01
  1.179060000E-01  4.942869016E-02
 
[MO]
Sym=     1a  
Ene=     0.0000
Spin= Alpha
Occup=    0.00000
   1         1.01049722
   2         0.05965847
   3        -0.00000000
   4         0.00000000
   5         0.00000000
   6         0.04456321
   7         0.00000000
   8         0.00000000
   9        -0.00000000
  10         0.00000000
  11         0.00000000
  12         0.00000000
  13        -0.00000000
  14         0.00000000
  15        -0.00771102
  16        -0.07264925
  17         0.00000000
  18         0.00000000
  19         0.00000000
  20         0.08390420
  21         0.00000000
  22         0.00000000
  23         0.00000000
  24        -0.00000000
  25         0.00000000
  26         0.00000000
  27         0.00000000
  28         0.00000000
Sym=     2a  
Ene=     0.0000
Spin= Alpha
Occup=    0.00000
   1         0.05965846
   2         1.35069165
   3         0.00000000
   4         0.00000000
   5         0.00000000
   6         0.27295224
   7         0.00000000
   8         0.00000000
   9         0.00000000
  10        -0.00000000
  11         0.00000000
  12         0.00000000
  13        -0.00000000
  14         0.00000000
  15        -0.07264925
  16        -0.48494580
  17        -0.00000000
  18         0.00000000
  19         0.00000000
  20         0.42962828
  21         0.00000000
  22         0.00000000
  23         0.00000000
  24         0.00000000
  25         0.00000000
  26         0.00000000
  27         0.00000000
  28         0.00000000
Sym=     3a  
Ene=     0.0000
Spin= Alpha
Occup=    0.00000
   1         0.72303020
   2         4.15361424
   3         2.94244541
   4         0.00000000
   5         0.00000000
   6         2.17227887
   7         0.00000000
   8         0.00000000
   9         1.27437365
  10         0.44857511
  11         0.00000000
  12         0.00000000
  13         0.00000000
  14         0.00000000
  15        -0.83387968
  16        -4.52364419
  17        -1.98185817
  18         0.00000000
  19         0.00000000
  20         1.94725522
  21         0.00000000
  22         0.00000000
  23         1.13538807
  24        -0.18439889
  25         0.00000000
  26         0.00000000
  27        -0.00000000
  28         0.00000000
Sym=     4a  
Ene=     0.0000
Spin= Alpha
Occup=    0.00000
   1         0.00000000
   2         0.00000000
   3         0.00000000
   4         1.04317617
   5         0.00000000
   6         0.00000000
   7         0.00000000
   8         0.00000000
   9         0.00000000
  10         0.00000000
  11        -0.00000000
  12         0.00000000
  13         0.00000000
  14         0.00000000
  15         0.00000000
  16         0.00000000
  17         0.00000000
  18        -0.17468633
  19         0.00000000
  20         0.00000000
  21         0.00000000
  22         0.00000000
  23         0.00000000
  24         0.00000000
  25         0.00000000
  26         0.00000000
  27         0.00000000
  28         0.00000000
Sym=     5a  
Ene=     0.0000
Spin= Alpha
Occup=    0.00000
   1         0.00000000
   2         0.00000000
   3         0.00000000
   4         0.42707380
   5         0.00000000
   6         0.00000000
   7         1.29477876
   8         0.00000000
   9         0.00000000
  10         0.00000000
  11         0.23899777
  12         0.00000000
  13         0.00000000
  14         0.00000000
  15         0.00000000
  16         0.00000000
  17         0.00000000
  18        -0.62721826
  19         0.00000000
  20         0.00000000
  21        -0.43999113
  22         0.00000000
  23         0.00000000
  24         0.00000000
  25         0.22524304
  26         0.00000000
  27         0.00000000
  28         0.00000000
Sym=     6a  
Ene=     0.0000
Spin= Alpha
Occup=    0.00000
   1         0.00000000
   2         0.00000000
   3         0.00000000
   4         0.00000000
   5         1.04317617
   6         0.00000000
   7         0.00000000
   8         0.00000000
   9         0.00000000
  10         0.00000000
  11         0.00000000
  12         0.00000000
  13         0.00000000
  14         0.00000000
  15         0.00000000
  16         0.00000000
  17         0.00000000
  18         0.00000000
  19        -0.17468633
  20         0.00000000
  21         0.00000000
  22         0.00000000
  23         0.00000000
  24         0.00000000
  25         0.00000000
  26         0.00000000
  27         0.00000000
  28         0.00000000
Sym=     7a  
Ene=     0.0000
Spin= Alpha
Occup=    0.00000
   1         0.00000000
   2         0.00000000
   3         0.00000000
   4         0.00000000
   5         0.42707380
   6         0.00000000
   7         0.00000000
   8         1.29477876
   9         0.00000000
  10         0.00000000
  11         0.00000000
  12         0.23899777
  13         0.00000000
  14         0.00000000
  15         0.00000000
  16         0.00000000
  17         0.00000000
  18         0.00000000
  19        -0.62721826
  20         0.00000000
  21         0.00000000
  22        -0.43999113
  23         0.00000000
  24         0.00000000
  25         0.00000000
  26         0.22524304
  27         0.00000000
  28         0.00000000
Sym=     8a  
Ene=     0.0000
Spin= Alpha
Occup=    0.00000
   1         0.04456321
   2         0.27295224
   3         0.00000000
   4         0.00000000
   5         0.00000000
   6         1.22249983
   7         0.00000000
   8         0.00000000
   9         0.00000000
  10        -0.00000000
  11         0.00000000
  12         0.00000000
  13        -0.00000000
  14         0.00000000
  15        -0.08390420
  16        -0.42962828
  17        -0.00000000
  18         0.00000000
  19         0.00000000
  20         0.27669346
  21         0.00000000
  22         0.00000000
  23         0.00000000
  24         0.00000000
  25         0.00000000
  26         0.00000000
  27         0.00000000
  28         0.00000000
Sym=     9a  
Ene=     0.0000
Spin= Alpha
Occup=    0.00000
   1         0.51062310
   2         3.08463500
   3         1.55257113
   4         0.00000000
   5         0.00000000
   6         1.81004622
   7         0.00000000
   8         0.00000000
   9         2.14257159
  10         0.48242967
  11         0.00000000
  12         0.00000000
  13         0.00000000
  14         0.00000000
  15        -0.73220614
  16        -3.76097249
  17        -1.45750269
  18         0.00000000
  19         0.00000000
  20         1.27857361
  21         0.00000000
  22         0.00000000
  23         0.63787230
  24        -0.03987288
  25         0.00000000
  26         0.00000000
  27        -0.00000000
  28         0.00000000
Sym=    10a  
Ene=     0.0000
Spin= Alpha
Occup=    0.00000
   1         0.00000000
   2         0.00000000
   3         0.00000000
   4         0.00000000
   5         0.00000000
   6         0.00000000
   7         0.00000000
   8         0.00000000
   9         0.00000000
  10         0.00000000
  11         0.00000000
  12         0.00000000
  13         0.00000000
  14         1.03076328
  15         0.00000000
  16         0.00000000
  17         0.00000000
  18         0.00000000
  19         0.00000000
  20         0.00000000
  21         0.00000000
  22         0.00000000
  23         0.00000000
  24         0.00000000
  25         0.00000000
  26         0.00000000
  27         0.00000000
  28        -0.14624293
Sym=    11a  
Ene=     0.0000
Spin= Alpha
Occup=    0.00000
   1         0.00000000
   2         0.00000000
   3         0.00000000
   4         0.00000000
   5         0.47066238
   6         0.00000000
   7         0.00000000
   8         0.26158127
   9         0.00000000
  10         0.00000000
  11         0.00000000
  12         1.29885260
  13         0.00000000
  14         0.00000000
  15         0.00000000
  16         0.00000000
  17         0.00000000
  18         0.00000000
  19        -0.74581002
  20         0.00000000
  21         0.00000000
  22        -0.24956866
  23         0.00000000
  24         0.00000000
  25         0.00000000
  26         0.38440471
  27         0.00000000
  28         0.00000000
Sym=    12a  
Ene=     0.0000
Spin= Alpha
Occup=    0.00000
   1         0.51918753
   2         2.95898970
   3         1.21445363
   4         0.00000000
   5         0.00000000
   6         1.83492590
   7         0.00000000
   8         0.00000000
   9         0.88809168
  10         1.56898495
  11         0.00000000
  12         0.00000000
  13         0.00000000
  14         0.00000000
  15        -0.74096309
  16        -3.43889798
  17        -0.99545385
  18         0.00000000
  19         0.00000000
  20         1.60903110
  21         0.00000000
  22         0.00000000
  23         0.47747110
  24        -0.31786296
  25         0.00000000
  26         0.00000000
  27        -0.00000000
  28         0.00000000
Sym=    13a  
Ene=     0.0000
Spin= Alpha
Occup=    0.00000
   1         0.00000000
   2         0.00000000
   3         0.00000000
   4         0.47066238
   5         0.00000000
   6         0.00000000
   7         0.26158127
   8         0.00000000
   9         0.00000000
  10         0.00000000
  11         1.29885260
  12         0.00000000
  13         0.00000000
  14         0.00000000
  15         0.00000000
  16         0.00000000
  17         0.00000000
  18        -0.74581002
  19         0.00000000
  20         0.00000000
  21        -0.24956866
  22         0.00000000
  23         0.00000000
  24         0.00000000
  25         0.38440471
  26         0.00000000
  27         0.00000000
  28         0.00000000
Sym=    14a  
Ene=     0.0000
Spin= Alpha
Occup=    0.00000
   1         0.00000000
   2         0.00000000
   3         0.00000000
   4         0.00000000
   5         0.00000000
   6         0.00000000
   7         0.00000000
   8         0.00000000
   9        -0.00000000
  10         0.00000000
  11         0.00000000
  12         0.00000000
  13         1.03076328
  14         0.00000000
  15        -0.00000000
  16        -0.00000000
  17        -0.00000000
  18         0.00000000
  19         0.00000000
  20         0.00000000
  21         0.00000000
  22         0.00000000
  23         0.00000000
  24        -0.00000000
  25         0.00000000
  26         0.00000000
  27        -0.14624293
  28         0.00000000
Sym=    15a  
Ene=     0.0000
Spin= Alpha
Occup=    0.00000
   1        -0.00771102
   2        -0.07264925
   3         0.00000000
   4         0.00000000
   5         0.00000000
   6        -0.08390420
   7         0.00000000
   8         0.00000000
   9        -0.00000000
  10        -0.00000000
  11         0.00000000
  12         0.00000000
  13         0.00000000
  14         0.00000000
  15         1.01049722
  16         0.05965847
  17         0.00000000
  18         0.00000000
  19         0.00000000
  20        -0.04456321
  21         0.00000000
  22         0.00000000
  23         0.00000000
  24        -0.00000000
  25         0.00000000
  26         0.00000000
  27        -0.00000000
  28         0.00000000
Sym=    16a  
Ene=     0.0000
Spin= Alpha
Occup=    0.00000
   1        -0.07264925
   2        -0.48494580
   3        -0.00000000
   4         0.00000000
   5         0.00000000
   6        -0.42962828
   7         0.00000000
   8         0.00000000
   9        -0.00000000
  10         0.00000000
  11         0.00000000
  12         0.00000000
  13         0.00000000
  14         0.00000000
  15         0.05965846
  16         1.35069165
  17         0.00000000
  18         0.00000000
  19         0.00000000
  20        -0.27295224
  21         0.00000000
  22         0.00000000
  23        -0.00000000
  24        -0.00000000
  25         0.00000000
  26         0.00000000
  27        -0.00000000
  28         0.00000000
Sym=    17a  
Ene=     0.0000
Spin= Alpha
Occup=    0.00000
   1        -0.83387968
   2        -4.52364419
   3        -1.98185817
   4         0.00000000
   5         0.00000000
   6        -1.94725522
   7         0.00000000
   8         0.00000000
   9        -1.13538807
  10        -0.18439889
  11         0.00000000
  12         0.00000000
  13        -0.00000000
  14         0.00000000
  15         0.72303020
  16         4.15361424
  17         2.94244541
  18         0.00000000
  19         0.00000000
  20        -2.17227887
  21         0.00000000
  22         0.00000000
  23        -1.27437365
  24         0.44857511
  25         0.00000000
  26         0.00000000
  27         0.00000000
  28         0.00000000
Sym=    18a  
Ene=     0.0000
Spin= Alpha
Occup=    0.00000
   1         0.00000000
   2         0.00000000
   3         0.00000000
   4        -0.17468633
   5         0.00000000
   6         0.00000000
   7         0.00000000
   8         0.00000000
   9         0.00000000
  10         0.00000000
  11         0.00000000
  12         0.00000000
  13         0.00000000
  14         0.00000000
  15         0.00000000
  16         0.00000000
  17         0.00000000
  18         1.04317617
  19         0.00000000
  20         0.00000000
  21        -0.00000000
  22         0.00000000
  23         0.00000000
  24         0.00000000
  25         0.00000000
  26         0.00000000
  27         0.00000000
  28         0.00000000
Sym=    19a  
Ene=     0.0000
Spin= Alpha
Occup=    0.00000
   1         0.00000000
   2         0.00000000
   3         0.00000000
   4        -0.62721826
   5         0.00000000
   6         0.00000000
   7        -0.43999113
   8         0.00000000
   9         0.00000000
  10         0.00000000
  11        -0.22524304
  12         0.00000000
  13         0.00000000
  14         0.00000000
  15         0.00000000
  16         0.00000000
  17         0.00000000
  18         0.42707380
  19         0.00000000
  20         0.00000000
  21         1.29477876
  22         0.00000000
  23         0.00000000
  24         0.00000000
  25        -0.23899777
  26         0.00000000
  27         0.00000000
  28         0.00000000
Sym=    20a  
Ene=     0.0000
Spin= Alpha
Occup=    0.00000
   1         0.00000000
   2         0.00000000
   3         0.00000000
   4         0.00000000
   5        -0.17468633
   6         0.00000000
   7         0.00000000
   8         0.00000000
   9         0.00000000
  10         0.00000000
  11         0.00000000
  12         0.00000000
  13         0.00000000
  14         0.00000000
  15         0.00000000
  16         0.00000000
  17         0.00000000
  18         0.00000000
  19         1.04317617
  20         0.00000000
  21         0.00000000
  22         0.00000000
  23         0.00000000
  24         0.00000000
  25         0.00000000
  26         0.00000000
  27         0.00000000
  28         0.00000000
Sym=    21a  
Ene=     0.0000
Spin= Alpha
Occup=    0.00000
   1         0.00000000
   2         0.00000000
   3         0.00000000
   4         0.00000000
   5        -0.62721826
   6         0.00000000
   7         0.00000000
   8        -0.43999113
   9         0.00000000
  10         0.00000000
  11         0.00000000
  12        -0.22524304
  13         0.00000000
  14         0.00000000
  15         0.00000000
  16         0.00000000
  17         0.00000000
  18         0.00000000
  19         0.42707380
  20         0.00000000
  21         0.00000000
  22         1.29477876
  23         0.00000000
  24         0.00000000
  25         0.00000000
  26        -0.23899777
  27         0.00000000
  28         0.00000000
Sym=    22a  
Ene=     0.0000
Spin= Alpha
Occup=    0.00000
   1         0.08390420
   2         0.42962828
   3         0.00000000
   4         0.00000000
   5         0.00000000
   6         0.27669346
   7         0.00000000
   8         0.00000000
   9         0.00000000
  10        -0.00000000
  11         0.00000000
  12         0.00000000
  13        -0.00000000
  14         0.00000000
  15        -0.04456321
  16        -0.27295224
  17        -0.00000000
  18         0.00000000
  19         0.00000000
  20         1.22249983
  21         0.00000000
  22         0.00000000
  23         0.00000000
  24         0.00000000
  25         0.00000000
  26         0.00000000
  27         0.00000000
  28         0.00000000
Sym=    23a  
Ene=     0.0000
Spin= Alpha
Occup=    0.00000
   1         0.73220614
   2         3.76097249
   3         1.45750269
   4         0.00000000
   5         0.00000000
   6         1.27857361
   7         0.00000000
   8         0.00000000
   9         0.63787230
  10         0.03987288
  11         0.00000000
  12         0.00000000
  13         0.00000000
  14         0.00000000
  15        -0.51062310
  16        -3.08463500
  17        -1.55257113
  18         0.00000000
  19         0.00000000
  20         1.81004622
  21         0.00000000
  22         0.00000000
  23         2.14257159
  24        -0.48242967
  25         0.00000000
  26         0.00000000
  27        -0.00000000
  28         0.00000000
Sym=    24a  
Ene=     0.0000
Spin= Alpha
Occup=    0.00000
   1         0.00000000
   2         0.00000000
   3         0.00000000
   4         0.00000000
   5         0.00000000
   6         0.00000000
   7         0.00000000
   8         0.00000000
   9         0.00000000
  10         0.00000000
  11         0.00000000
  12         0.00000000
  13         0.00000000
  14        -0.14624293
  15         0.00000000
  16         0.00000000
  17         0.00000000
  18         0.00000000
  19         0.00000000
  20         0.00000000
  21         0.00000000
  22         0.00000000
  23         0.00000000
  24         0.00000000
  25         0.00000000
  26         0.00000000
  27         0.00000000
  28         1.03076328
Sym=    25a  
Ene=     0.0000
Spin= Alpha
Occup=    0.00000
   1         0.00000000
   2         0.00000000
   3         0.00000000
   4         0.00000000
   5         0.74581002
   6         0.00000000
   7         0.00000000
   8         0.24956866
   9         0.00000000
  10         0.00000000
  11         0.00000000
  12         0.38440471
  13         0.00000000
  14         0.00000000
  15         0.00000000
  16         0.00000000
  17         0.00000000
  18         0.00000000
  19        -0.47066238
  20         0.00000000
  21         0.00000000
  22        -0.26158127
  23         0.00000000
  24         0.00000000
  25         0.00000000
  26         1.29885260
  27         0.00000000
  28         0.00000000
Sym=    26a  
Ene=     0.0000
Spin= Alpha
Occup=    0.00000
   1        -0.74096309
   2        -3.43889798
   3        -0.99545385
   4         0.00000000
   5         0.00000000
   6        -1.60903110
   7         0.00000000
   8         0.00000000
   9        -0.47747110
  10        -0.31786296
  11         0.00000000
  12         0.00000000
  13        -0.00000000
  14         0.00000000
  15         0.51918753
  16         2.95898970
  17         1.21445363
  18         0.00000000
  19         0.00000000
  20        -1.83492590
  21         0.00000000
  22         0.00000000
  23        -0.88809168
  24         1.56898495
  25         0.00000000
  26         0.00000000
  27         0.00000000
  28         0.00000000
Sym=    27a  
Ene=     0.0000
Spin= Alpha
Occup=    0.00000
   1         0.00000000
   2         0.00000000
   3         0.00000000
   4         0.74581002
   5         0.00000000
   6         0.00000000
   7         0.24956866
   8         0.00000000
   9         0.00000000
  10         0.00000000
  11         0.38440471
  12         0.00000000
  13         0.00000000
  14         0.00000000
  15         0.00000000
  16         0.00000000
  17         0.00000000
  18        -0.47066238
  19         0.00000000
  20         0.00000000
  21        -0.26158127
  22         0.00000000
  23         0.00000000
  24         0.00000000
  25         1.29885260
  26         0.00000000
  27         0.00000000
  28         0.00000000
Sym=    28a  
Ene=     0.0000
Spin= Alpha
Occup=    0.00000
   1        -0.00000000
   2        -0.00000000
   3        -0.00000000
   4         0.00000000
   5         0.00000000
   6        -0.00000000
   7         0.00000000
   8         0.00000000
   9        -0.00000000
  10        -0.00000000
  11         0.00000000
  12         0.00000000
  13        -0.14624293
  14         0.00000000
  15         0.00000000
  16         0.00000000
  17         0.00000000
  18         0.00000000
  19         0.00000000
  20        -0.00000000
  21         0.00000000
  22         0.00000000
  23        -0.00000000
  24         0.00000000
  25         0.00000000
  26         0.00000000
  27         1.03076328
  28         0.00000000
