[Molden Format]
[N_Atoms]
                     2
[Atoms] (AU)
N1          1      7           0.00000000      0.00000000      0.00000000
N2          2      7           0.00000000      0.00000000      2.07869874
[5D]
[Charge] (Mulliken)
 -2.683070186444425E-004
  2.683070186346725E-004
[GTO] (AU)
   1
   s  14
  7.476171500E+04  1.182599996E-04
  1.112365400E+04  5.172899983E-04
  2.512685700E+03  2.266659992E-03
  7.037772900E+02  9.145289970E-03
  2.254787900E+02  3.239342989E-02
  7.961581000E+01  9.770792967E-02
  3.023728300E+01  2.317036792E-01
  1.226362200E+01  3.768898887E-01
  5.265086000E+00  3.177420689E-01
  2.333471000E+00  8.211308973E-02
  9.018560000E-01  3.312089989E-03
  3.583360000E-01  3.720819988E-03
  1.410930000E-01  3.165419989E-03
  4.938300000E-02  4.595799985E-04
   s  14
  7.476171500E+04 -2.707000010E-05
  1.112365400E+04 -1.183700004E-04
  2.512685700E+03 -5.203800020E-04
  7.037772900E+02 -2.102930008E-03
  2.254787900E+02 -7.568200028E-03
  7.961581000E+01 -2.346767009E-02
  3.023728300E+01 -6.042901023E-02
  1.226362200E+01 -1.170549104E-01
  5.265086000E+00 -1.555321506E-01
  2.333471000E+00 -2.468935009E-02
  9.018560000E-01  3.625054514E-01
  3.583360000E-01  5.550845021E-01
  1.410930000E-01  2.148376908E-01
  4.938300000E-02  8.983850034E-03
   s  14
  7.476171500E+04  1.875999998E-05
  1.112365400E+04  8.117999992E-05
  2.512685700E+03  3.658999997E-04
  7.037772900E+02  1.443039999E-03
  2.254787900E+02  5.531839995E-03
  7.961581000E+01  1.724358998E-02
  3.023728300E+01  5.279547995E-02
  1.226362200E+01  1.152881299E-01
  5.265086000E+00  2.352593898E-01
  2.333471000E+00 -4.896386995E-02
  9.018560000E-01 -1.023217739E+00
  3.583360000E-01 -1.481586599E-01
  1.410930000E-01  1.021557539E+00
  4.938300000E-02  1.724018298E-01
   p   9
  1.266665700E+02  1.233630000E-03
  2.983738900E+01  9.493409996E-03
  9.394038000E+00  4.293961998E-02
  3.405104000E+00  1.362925399E-01
  1.350000000E+00  2.921362499E-01
  5.576960000E-01  3.887887598E-01
  2.324490000E-01  2.946801399E-01
  9.426400000E-02  8.012875997E-02
  3.299200000E-02  5.405199998E-04
   p   9
  1.266665700E+02 -1.466229998E-03
  2.983738900E+01 -1.182147998E-02
  9.394038000E+00 -4.983125993E-02
  3.405104000E+00 -1.730904198E-01
  1.350000000E+00 -4.732370794E-01
  5.576960000E-01 -2.055113197E-01
  2.324490000E-01  5.910379792E-01
  9.426400000E-02  4.511796794E-01
  3.299200000E-02  1.367471998E-02
   d   4
  2.750000000E+00  1.473016505E-01
  9.625000000E-01  5.502182618E-01
  3.368750000E-01  4.452560414E-01
  1.179060000E-01  4.942869016E-02
 
   2
   s  14
  7.476171500E+04  1.182599996E-04
  1.112365400E+04  5.172899983E-04
  2.512685700E+03  2.266659992E-03
  7.037772900E+02  9.145289970E-03
  2.254787900E+02  3.239342989E-02
  7.961581000E+01  9.770792967E-02
  3.023728300E+01  2.317036792E-01
  1.226362200E+01  3.768898887E-01
  5.265086000E+00  3.177420689E-01
  2.333471000E+00  8.211308973E-02
  9.018560000E-01  3.312089989E-03
  3.583360000E-01  3.720819988E-03
  1.410930000E-01  3.165419989E-03
  4.938300000E-02  4.595799985E-04
   s  14
  7.476171500E+04 -2.707000010E-05
  1.112365400E+04 -1.183700004E-04
  2.512685700E+03 -5.203800020E-04
  7.037772900E+02 -2.102930008E-03
  2.254787900E+02 -7.568200028E-03
  7.961581000E+01 -2.346767009E-02
  3.023728300E+01 -6.042901023E-02
  1.226362200E+01 -1.170549104E-01
  5.265086000E+00 -1.555321506E-01
  2.333471000E+00 -2.468935009E-02
  9.018560000E-01  3.625054514E-01
  3.583360000E-01  5.550845021E-01
  1.410930000E-01  2.148376908E-01
  4.938300000E-02  8.983850034E-03
   s  14
  7.476171500E+04  1.875999998E-05
  1.112365400E+04  8.117999992E-05
  2.512685700E+03  3.658999997E-04
  7.037772900E+02  1.443039999E-03
  2.254787900E+02  5.531839995E-03
  7.961581000E+01  1.724358998E-02
  3.023728300E+01  5.279547995E-02
  1.226362200E+01  1.152881299E-01
  5.265086000E+00  2.352593898E-01
  2.333471000E+00 -4.896386995E-02
  9.018560000E-01 -1.023217739E+00
  3.583360000E-01 -1.481586599E-01
  1.410930000E-01  1.021557539E+00
  4.938300000E-02  1.724018298E-01
   p   9
  1.266665700E+02  1.233630000E-03
  2.983738900E+01  9.493409996E-03
  9.394038000E+00  4.293961998E-02
  3.405104000E+00  1.362925399E-01
  1.350000000E+00  2.921362499E-01
  5.576960000E-01  3.887887598E-01
  2.324490000E-01  2.946801399E-01
  9.426400000E-02  8.012875997E-02
  3.299200000E-02  5.405199998E-04
   p   9
  1.266665700E+02 -1.466229998E-03
  2.983738900E+01 -1.182147998E-02
  9.394038000E+00 -4.983125993E-02
  3.405104000E+00 -1.730904198E-01
  1.350000000E+00 -4.732370794E-01
  5.576960000E-01 -2.055113197E-01
  2.324490000E-01  5.910379792E-01
  9.426400000E-02  4.511796794E-01
  3.299200000E-02  1.367471998E-02
   d   4
  2.750000000E+00  1.473016505E-01
  9.625000000E-01  5.502182618E-01
  3.368750000E-01  4.452560414E-01
  1.179060000E-01  4.942869016E-02
 
[MO]
Sym=     1a  
Ene=   -15.6960
Spin= Alpha
Occup=    2.00000
   1         0.70247730
   2        -0.00374837
   3        -0.00139311
   4        -0.00000000
   5         0.00000000
   6         0.00105443
   7        -0.00000000
   8        -0.00000000
   9        -0.00075216
  10         0.00049271
  11        -0.00000000
  12         0.00000000
  13        -0.00000005
  14        -0.00000000
  15         0.71122147
  16        -0.00372153
  17        -0.00137610
  18         0.00000000
  19        -0.00000000
  20        -0.00110230
  21        -0.00000000
  22         0.00000000
  23         0.00073678
  24         0.00050889
  25        -0.00000000
  26         0.00000000
  27        -0.00000008
  28        -0.00000000
Sym=     2a  
Ene=   -15.6920
Spin= Alpha
Occup=    2.00000
   1        -0.71242233
   2        -0.00026570
   3        -0.00027839
   4        -0.00000000
   5         0.00000000
   6        -0.00296173
   7        -0.00000000
   8        -0.00000000
   9        -0.00063369
  10        -0.00110064
  11         0.00000000
  12         0.00000000
  13         0.00000002
  14         0.00000000
  15         0.70369756
  16         0.00031031
  17         0.00029667
  18         0.00000000
  19        -0.00000000
  20        -0.00294843
  21        -0.00000000
  22        -0.00000000
  23        -0.00064299
  24         0.00109443
  25        -0.00000000
  26         0.00000000
  27         0.00000006
  28         0.00000000
Sym=     3a  
Ene=    -1.4723
Spin= Alpha
Occup=    2.00000
   1        -0.04513528
   2         0.48335255
   3        -0.05190669
   4         0.00000000
   5         0.00000000
   6         0.23210395
   7        -0.00000000
   8         0.00000000
   9        -0.05964914
  10         0.03811638
  11         0.00000000
  12        -0.00000000
  13         0.00000014
  14         0.00000000
  15        -0.04517373
  16         0.48316156
  17        -0.05202050
  18         0.00000000
  19        -0.00000000
  20        -0.23198274
  21         0.00000000
  22         0.00000000
  23         0.05971380
  24         0.03809251
  25        -0.00000000
  26         0.00000000
  27         0.00000091
  28        -0.00000000
Sym=     4a  
Ene=    -0.7807
Spin= Alpha
Occup=    2.00000
   1        -0.01473131
   2        -0.68956501
   3        -0.01542156
   4         0.00000000
   5         0.00000000
   6         0.29392806
   7         0.00000000
   8        -0.00000000
   9        -0.00587918
  10         0.01107225
  11         0.00000000
  12         0.00000000
  13         0.00000097
  14         0.00000000
  15         0.01473738
  16         0.68956861
  17         0.01541618
  18        -0.00000000
  19         0.00000000
  20         0.29397733
  21         0.00000000
  22        -0.00000000
  23        -0.00588429
  24        -0.01107526
  25        -0.00000000
  26        -0.00000000
  27        -0.00000061
  28        -0.00000000
Sym=     5a  
Ene=    -0.6349
Spin= Alpha
Occup=    2.00000
   1         0.03455159
   2         0.39573175
   3         0.06935127
   4        -0.00000000
   5         0.00000000
   6        -0.58735168
   7        -0.00000000
   8        -0.00000000
   9         0.04483744
  10        -0.03392804
  11        -0.00000000
  12         0.00000000
  13        -0.00000015
  14        -0.00000000
  15         0.03454500
  16         0.39566192
  17         0.06933001
  18        -0.00000000
  19         0.00000000
  20         0.58734026
  21         0.00000000
  22        -0.00000000
  23        -0.04481897
  24        -0.03393157
  25         0.00000000
  26        -0.00000000
  27        -0.00000083
  28        -0.00000000
Sym=     6a  
Ene=    -0.6124
Spin= Alpha
Occup=    2.00000
   1        -0.00000000
   2        -0.00000000
   3        -0.00000000
   4        -0.00000000
   5         0.59681893
   6         0.00000000
   7         0.00000000
   8        -0.00453854
   9        -0.00000000
  10         0.00000000
  11        -0.00000000
  12         0.05424002
  13         0.00000000
  14         0.00000000
  15        -0.00000000
  16        -0.00000000
  17        -0.00000000
  18        -0.00000000
  19         0.59678680
  20        -0.00000000
  21         0.00000000
  22        -0.00452285
  23         0.00000000
  24         0.00000000
  25         0.00000000
  26        -0.05424072
  27         0.00000000
  28         0.00000000
Sym=     7a  
Ene=    -0.6124
Spin= Alpha
Occup=    2.00000
   1         0.00000000
   2         0.00000000
   3         0.00000000
   4         0.59679229
   5         0.00000000
   6        -0.00000000
   7        -0.00452797
   8        -0.00000000
   9         0.00000000
  10        -0.00000000
  11         0.05424145
  12         0.00000000
  13        -0.00000000
  14        -0.00000000
  15         0.00000000
  16         0.00000000
  17         0.00000000
  18         0.59681172
  19         0.00000000
  20         0.00000000
  21        -0.00452746
  22        -0.00000000
  23        -0.00000000
  24        -0.00000000
  25        -0.05424039
  26        -0.00000000
  27         0.00000000
  28        -0.00000000
Sym=     8a  
Ene=     0.1683
Spin= Alpha
Occup=    0.00000
   1        -0.00000000
   2        -0.00000000
   3        -0.00000000
   4        -0.94512718
   5         0.00000000
   6        -0.00000000
   7        -0.27222104
   8         0.00000000
   9        -0.00000000
  10        -0.00000000
  11         0.01608866
  12        -0.00000000
  13        -0.00000000
  14        -0.00000000
  15         0.00000000
  16         0.00000000
  17         0.00000000
  18         0.94511603
  19        -0.00000000
  20         0.00000000
  21         0.27220877
  22        -0.00000000
  23        -0.00000000
  24        -0.00000000
  25         0.01608875
  26        -0.00000000
  27         0.00000000
  28        -0.00000000
Sym=     9a  
Ene=     0.1683
Spin= Alpha
Occup=    0.00000
   1        -0.00000000
   2        -0.00000000
   3        -0.00000000
   4        -0.00000000
   5        -0.94508956
   6         0.00000000
   7        -0.00000000
   8        -0.27213000
   9        -0.00000000
  10         0.00000000
  11         0.00000000
  12         0.01609840
  13         0.00000000
  14        -0.00000000
  15        -0.00000000
  16        -0.00000000
  17        -0.00000000
  18         0.00000000
  19         0.94510671
  20        -0.00000000
  21         0.00000000
  22         0.27217392
  23        -0.00000000
  24         0.00000000
  25         0.00000000
  26         0.01610274
  27         0.00000000
  28         0.00000000
Sym=    10a  
Ene=     0.5190
Spin= Alpha
Occup=    0.00000
   1         0.51181764
   2         2.92511670
   3         0.89938360
   4         0.00000000
   5        -0.00000000
   6         1.52486915
   7         0.00000000
   8        -0.00000000
   9         1.21243085
  10         0.10097475
  11         0.00000000
  12         0.00000000
  13        -0.00000681
  14         0.00000000
  15        -0.51182797
  16        -2.92515897
  17        -0.89910522
  18        -0.00000000
  19         0.00000000
  20         1.52481676
  21         0.00000000
  22        -0.00000000
  23         1.21253826
  24        -0.10097222
  25        -0.00000000
  26        -0.00000000
  27         0.00000407
  28         0.00000000
Sym=    11a  
Ene=     0.6269
Spin= Alpha
Occup=    0.00000
   1         0.05379380
   2         0.20654926
   3        -0.56355989
   4        -0.00000000
   5         0.00000000
   6        -0.28062390
   7         0.00000000
   8         0.00000000
   9        -0.18464415
  10         0.09169835
  11        -0.00000000
  12        -0.00000000
  13         0.00000111
  14        -0.00000000
  15         0.05359656
  16         0.20540057
  17        -0.56392656
  18         0.00000000
  19        -0.00000000
  20         0.28119958
  21         0.00000000
  22         0.00000000
  23         0.18512688
  24         0.09167170
  25         0.00000000
  26         0.00000000
  27         0.00000214
  28        -0.00000000
Sym=    12a  
Ene=     0.6900
Spin= Alpha
Occup=    0.00000
   1         0.00000000
   2         0.00000000
   3         0.00000000
   4         0.00000000
   5        -0.07981213
   6         0.00000000
   7        -0.00000000
   8         0.58814438
   9         0.00000000
  10         0.00000000
  11         0.00000000
  12        -0.12988244
  13        -0.00000000
  14        -0.00000000
  15        -0.00000000
  16        -0.00000000
  17        -0.00000000
  18         0.00000000
  19        -0.07985155
  20         0.00000000
  21        -0.00000000
  22         0.58819378
  23         0.00000000
  24        -0.00000000
  25        -0.00000000
  26         0.12986186
  27        -0.00000000
  28        -0.00000000
Sym=    13a  
Ene=     0.6900
Spin= Alpha
Occup=    0.00000
   1        -0.00000000
   2        -0.00000000
   3        -0.00000000
   4        -0.07983508
   5        -0.00000000
   6        -0.00000000
   7         0.58817930
   8         0.00000000
   9        -0.00000000
  10        -0.00000000
  11        -0.12986598
  12        -0.00000000
  13         0.00000000
  14        -0.00000000
  15         0.00000000
  16         0.00000000
  17         0.00000000
  18        -0.07983295
  19        -0.00000000
  20        -0.00000000
  21         0.58815829
  22         0.00000000
  23         0.00000000
  24         0.00000000
  25         0.12988158
  26         0.00000000
  27        -0.00000000
  28         0.00000000
Sym=    14a  
Ene=     0.7778
Spin= Alpha
Occup=    0.00000
   1         0.06075229
   2         0.19923828
   3         0.22434663
   4         0.00000000
   5        -0.00000000
   6        -0.25957897
   7        -0.00000000
   8         0.00000000
   9        -0.79594491
  10         0.09390439
  11         0.00000000
  12        -0.00000000
  13        -0.00000111
  14         0.00000000
  15         0.06076633
  16         0.19933431
  17         0.22422663
  18        -0.00000000
  19         0.00000000
  20         0.25950746
  21        -0.00000000
  22         0.00000000
  23         0.79583067
  24         0.09389360
  25        -0.00000000
  26         0.00000000
  27        -0.00000151
  28         0.00000000
Sym=    15a  
Ene=     1.0489
Spin= Alpha
Occup=    0.00000
   1         0.00000000
   2         0.00000000
   3         0.00000000
   4        -0.29790862
   5         0.00000000
   6         0.00000000
   7        -1.07940444
   8         0.00000000
   9        -0.00000000
  10        -0.00000000
  11        -0.05655271
  12         0.00000000
  13        -0.00000000
  14         0.00000000
  15        -0.00000000
  16        -0.00000000
  17        -0.00000000
  18         0.29790418
  19        -0.00000000
  20         0.00000000
  21         1.07941805
  22        -0.00000000
  23        -0.00000000
  24         0.00000000
  25        -0.05656474
  26         0.00000000
  27        -0.00000000
  28         0.00000000
Sym=    16a  
Ene=     1.0490
Spin= Alpha
Occup=    0.00000
   1        -0.00000000
   2        -0.00000000
   3        -0.00000000
   4        -0.00000000
   5        -0.29792964
   6        -0.00000000
   7        -0.00000000
   8        -1.07942349
   9         0.00000000
  10         0.00000000
  11        -0.00000000
  12        -0.05651889
  13         0.00000000
  14        -0.00000000
  15         0.00000000
  16         0.00000000
  17         0.00000000
  18         0.00000000
  19         0.29792121
  20        -0.00000000
  21         0.00000000
  22         1.07938907
  23         0.00000000
  24        -0.00000000
  25        -0.00000000
  26        -0.05651960
  27        -0.00000000
  28        -0.00000000
Sym=    17a  
Ene=     1.0510
Spin= Alpha
Occup=    0.00000
   1         0.09021661
   2         0.77299063
   3         0.36632069
   4         0.00000000
   5        -0.00000000
   6         0.78013889
   7         0.00000000
   8        -0.00000000
   9        -0.18820920
  10        -0.28052755
  11         0.00000000
  12        -0.00000000
  13         0.00000148
  14         0.00000000
  15        -0.09022106
  16        -0.77300301
  17        -0.36632879
  18        -0.00000000
  19         0.00000000
  20         0.78013407
  21        -0.00000000
  22         0.00000000
  23        -0.18825497
  24         0.28053349
  25         0.00000000
  26        -0.00000000
  27         0.00000344
  28         0.00000000
Sym=    18a  
Ene=     1.3660
Spin= Alpha
Occup=    0.00000
   1         0.00000000
   2         0.00000000
   3         0.00000000
   4        -0.00000000
   5         0.00000000
   6         0.00000000
   7         0.00000000
   8        -0.00000000
   9         0.00000000
  10         0.00000000
  11         0.00000000
  12        -0.00000000
  13        -0.00000000
  14         0.62544683
  15        -0.00000000
  16        -0.00000000
  17        -0.00000000
  18         0.00000000
  19         0.00000000
  20         0.00000000
  21        -0.00000000
  22         0.00000000
  23         0.00000000
  24        -0.00000000
  25        -0.00000000
  26         0.00000000
  27        -0.00000000
  28         0.62545384
Sym=    19a  
Ene=     1.3660
Spin= Alpha
Occup=    0.00000
   1        -0.00001208
   2        -0.00007148
   3        -0.00003838
   4         0.00000000
   5         0.00000000
   6        -0.00004087
   7        -0.00000000
   8         0.00000000
   9        -0.00002563
  10        -0.00001679
  11        -0.00000000
  12        -0.00000000
  13         0.62544773
  14         0.00000000
  15         0.00001558
  16         0.00007941
  17         0.00003751
  18        -0.00000000
  19        -0.00000000
  20        -0.00003513
  21         0.00000000
  22         0.00000000
  23        -0.00001255
  24         0.00000275
  25         0.00000000
  26         0.00000000
  27         0.62545294
  28         0.00000000
Sym=    20a  
Ene=     1.6723
Spin= Alpha
Occup=    0.00000
   1         0.00000000
   2         0.00000000
   3         0.00000000
   4         0.00000000
   5         0.26921224
   6         0.00000000
   7        -0.00000000
   8        -0.13941876
   9         0.00000000
  10         0.00000000
  11        -0.00000000
  12        -0.63117649
  13        -0.00000000
  14        -0.00000000
  15        -0.00000000
  16        -0.00000000
  17        -0.00000000
  18         0.00000000
  19         0.26920221
  20         0.00000000
  21        -0.00000000
  22        -0.13943389
  23         0.00000000
  24         0.00000000
  25         0.00000000
  26         0.63119156
  27        -0.00000000
  28        -0.00000000
Sym=    21a  
Ene=     1.6723
Spin= Alpha
Occup=    0.00000
   1         0.00000000
   2         0.00000000
   3         0.00000000
   4         0.26921083
   5        -0.00000000
   6         0.00000000
   7        -0.13943656
   8         0.00000000
   9         0.00000000
  10        -0.00000000
  11        -0.63117887
  12         0.00000000
  13        -0.00000000
  14         0.00000000
  15        -0.00000000
  16        -0.00000000
  17        -0.00000000
  18         0.26920615
  19        -0.00000000
  20         0.00000000
  21        -0.13941867
  22         0.00000000
  23         0.00000000
  24         0.00000000
  25         0.63118841
  26        -0.00000000
  27        -0.00000000
  28         0.00000000
Sym=    22a  
Ene=     1.9009
Spin= Alpha
Occup=    0.00000
   1        -0.86579521
   2        -4.86381861
   3        -3.09023226
   4         0.00000000
   5        -0.00000000
   6        -1.97935713
   7        -0.00000000
   8        -0.00000000
   9        -1.80031194
  10        -0.08823561
  11        -0.00000000
  12        -0.00000000
  13         0.00000168
  14        -0.00000000
  15         0.86580549
  16         4.86386968
  17         3.09022808
  18         0.00000000
  19         0.00000000
  20        -1.97932167
  21        -0.00000000
  22         0.00000000
  23        -1.80022266
  24         0.08821251
  25         0.00000000
  26         0.00000000
  27        -0.00000839
  28         0.00000000
Sym=    23a  
Ene=     2.1357
Spin= Alpha
Occup=    0.00000
   1         0.00000119
   2         0.00001014
   3         0.00000828
   4         0.00000000
   5        -0.00000000
   6         0.00001719
   7         0.00000000
   8        -0.00000000
   9         0.00000806
  10         0.00002568
  11         0.00000000
  12         0.00000000
  13        -0.83227103
  14        -0.00000000
  15        -0.00000721
  16        -0.00002604
  17         0.00000185
  18        -0.00000000
  19        -0.00000000
  20         0.00000872
  21         0.00000000
  22         0.00000000
  23        -0.00001217
  24         0.00000002
  25        -0.00000000
  26        -0.00000000
  27         0.83226711
  28         0.00000000
Sym=    24a  
Ene=     2.1357
Spin= Alpha
Occup=    0.00000
   1         0.00000000
   2         0.00000000
   3         0.00000000
   4         0.00000000
   5         0.00000000
   6         0.00000000
   7        -0.00000000
   8         0.00000000
   9         0.00000000
  10        -0.00000000
  11        -0.00000000
  12         0.00000000
  13         0.00000000
  14        -0.83227171
  15        -0.00000000
  16        -0.00000000
  17        -0.00000000
  18         0.00000000
  19        -0.00000000
  20         0.00000000
  21        -0.00000000
  22        -0.00000000
  23         0.00000000
  24         0.00000000
  25         0.00000000
  26         0.00000000
  27        -0.00000000
  28         0.83226643
Sym=    25a  
Ene=     2.9988
Spin= Alpha
Occup=    0.00000
   1        -0.22234975
   2        -0.57162587
   3         0.33813530
   4        -0.00000000
   5         0.00000000
   6         0.32775476
   7        -0.00000000
   8         0.00000000
   9         0.74360377
  10         0.94648364
  11        -0.00000000
  12         0.00000000
  13         0.00001593
  14         0.00000000
  15        -0.22249352
  16        -0.57236934
  17         0.33785935
  18         0.00000000
  19        -0.00000000
  20        -0.32735242
  21         0.00000000
  22        -0.00000000
  23        -0.74344844
  24         0.94629136
  25        -0.00000000
  26         0.00000000
  27        -0.00000678
  28        -0.00000000
Sym=    26a  
Ene=     3.2454
Spin= Alpha
Occup=    0.00000
   1        -0.00000000
   2        -0.00000000
   3        -0.00000000
   4         1.02725761
   5        -0.00000000
   6        -0.00000000
   7         0.62937851
   8        -0.00000000
   9        -0.00000000
  10        -0.00000000
  11         1.23328354
  12        -0.00000000
  13         0.00000000
  14        -0.00000000
  15         0.00000000
  16         0.00000000
  17         0.00000000
  18        -1.02725926
  19         0.00000000
  20        -0.00000000
  21        -0.62938408
  22         0.00000000
  23        -0.00000000
  24         0.00000000
  25         1.23327651
  26        -0.00000000
  27        -0.00000000
  28         0.00000000
Sym=    27a  
Ene=     3.2455
Spin= Alpha
Occup=    0.00000
   1         0.00000000
   2         0.00000000
   3        -0.00000000
   4         0.00000000
   5         1.02727206
   6        -0.00000000
   7         0.00000000
   8         0.62942171
   9        -0.00000000
  10        -0.00000000
  11         0.00000000
  12         1.23328451
  13        -0.00000000
  14         0.00000000
  15         0.00000000
  16         0.00000000
  17        -0.00000000
  18        -0.00000000
  19        -1.02727696
  20         0.00000000
  21        -0.00000000
  22        -0.62941235
  23         0.00000000
  24        -0.00000000
  25         0.00000000
  26         1.23327885
  27         0.00000000
  28        -0.00000000
Sym=    28a  
Ene=     3.7358
Spin= Alpha
Occup=    0.00000
   1        -1.33880881
   2        -7.08515629
   3        -2.93321266
   4        -0.00000000
   5        -0.00000000
   6        -3.69137038
   7         0.00000000
   8        -0.00000000
   9        -1.71889710
  10        -1.42121018
  11        -0.00000000
  12         0.00000000
  13        -0.00001268
  14         0.00000000
  15         1.33877776
  16         7.08508969
  17         2.93327041
  18         0.00000000
  19         0.00000000
  20        -3.69141448
  21        -0.00000000
  22         0.00000000
  23        -1.71897621
  24         1.42134162
  25        -0.00000000
  26        -0.00000000
  27         0.00000334
  28        -0.00000000
