[Molden Format]
[N_Atoms]
                     2
[Atoms] (AU)
N1          1      7           0.00000000      0.00000000      0.00000000
N2          2      7           0.00000000      0.00000000      7.74787712
[5D]
[Charge] (Mulliken)
  1.995807131827121E-005
 -1.995807133248206E-005
[GTO] (AU)
   1
   s  14
  7.476171500E+04  1.182599996E-04
  1.112365400E+04  5.172899983E-04
  2.512685700E+03  2.266659992E-03
  7.037772900E+02  9.145289970E-03
  2.254787900E+02  3.239342989E-02
  7.961581000E+01  9.770792967E-02
  3.023728300E+01  2.317036792E-01
  1.226362200E+01  3.768898887E-01
  5.265086000E+00  3.177420689E-01
  2.333471000E+00  8.211308973E-02
  9.018560000E-01  3.312089989E-03
  3.583360000E-01  3.720819988E-03
  1.410930000E-01  3.165419989E-03
  4.938300000E-02  4.595799985E-04
   s  14
  7.476171500E+04 -2.707000010E-05
  1.112365400E+04 -1.183700004E-04
  2.512685700E+03 -5.203800020E-04
  7.037772900E+02 -2.102930008E-03
  2.254787900E+02 -7.568200028E-03
  7.961581000E+01 -2.346767009E-02
  3.023728300E+01 -6.042901023E-02
  1.226362200E+01 -1.170549104E-01
  5.265086000E+00 -1.555321506E-01
  2.333471000E+00 -2.468935009E-02
  9.018560000E-01  3.625054514E-01
  3.583360000E-01  5.550845021E-01
  1.410930000E-01  2.148376908E-01
  4.938300000E-02  8.983850034E-03
   s  14
  7.476171500E+04  1.875999998E-05
  1.112365400E+04  8.117999992E-05
  2.512685700E+03  3.658999997E-04
  7.037772900E+02  1.443039999E-03
  2.254787900E+02  5.531839995E-03
  7.961581000E+01  1.724358998E-02
  3.023728300E+01  5.279547995E-02
  1.226362200E+01  1.152881299E-01
  5.265086000E+00  2.352593898E-01
  2.333471000E+00 -4.896386995E-02
  9.018560000E-01 -1.023217739E+00
  3.583360000E-01 -1.481586599E-01
  1.410930000E-01  1.021557539E+00
  4.938300000E-02  1.724018298E-01
   p   9
  1.266665700E+02  1.233630000E-03
  2.983738900E+01  9.493409996E-03
  9.394038000E+00  4.293961998E-02
  3.405104000E+00  1.362925399E-01
  1.350000000E+00  2.921362499E-01
  5.576960000E-01  3.887887598E-01
  2.324490000E-01  2.946801399E-01
  9.426400000E-02  8.012875997E-02
  3.299200000E-02  5.405199998E-04
   p   9
  1.266665700E+02 -1.466229998E-03
  2.983738900E+01 -1.182147998E-02
  9.394038000E+00 -4.983125993E-02
  3.405104000E+00 -1.730904198E-01
  1.350000000E+00 -4.732370794E-01
  5.576960000E-01 -2.055113197E-01
  2.324490000E-01  5.910379792E-01
  9.426400000E-02  4.511796794E-01
  3.299200000E-02  1.367471998E-02
   d   4
  2.750000000E+00  1.473016505E-01
  9.625000000E-01  5.502182618E-01
  3.368750000E-01  4.452560414E-01
  1.179060000E-01  4.942869016E-02
 
   2
   s  14
  7.476171500E+04  1.182599996E-04
  1.112365400E+04  5.172899983E-04
  2.512685700E+03  2.266659992E-03
  7.037772900E+02  9.145289970E-03
  2.254787900E+02  3.239342989E-02
  7.961581000E+01  9.770792967E-02
  3.023728300E+01  2.317036792E-01
  1.226362200E+01  3.768898887E-01
  5.265086000E+00  3.177420689E-01
  2.333471000E+00  8.211308973E-02
  9.018560000E-01  3.312089989E-03
  3.583360000E-01  3.720819988E-03
  1.410930000E-01  3.165419989E-03
  4.938300000E-02  4.595799985E-04
   s  14
  7.476171500E+04 -2.707000010E-05
  1.112365400E+04 -1.183700004E-04
  2.512685700E+03 -5.203800020E-04
  7.037772900E+02 -2.102930008E-03
  2.254787900E+02 -7.568200028E-03
  7.961581000E+01 -2.346767009E-02
  3.023728300E+01 -6.042901023E-02
  1.226362200E+01 -1.170549104E-01
  5.265086000E+00 -1.555321506E-01
  2.333471000E+00 -2.468935009E-02
  9.018560000E-01  3.625054514E-01
  3.583360000E-01  5.550845021E-01
  1.410930000E-01  2.148376908E-01
  4.938300000E-02  8.983850034E-03
   s  14
  7.476171500E+04  1.875999998E-05
  1.112365400E+04  8.117999992E-05
  2.512685700E+03  3.658999997E-04
  7.037772900E+02  1.443039999E-03
  2.254787900E+02  5.531839995E-03
  7.961581000E+01  1.724358998E-02
  3.023728300E+01  5.279547995E-02
  1.226362200E+01  1.152881299E-01
  5.265086000E+00  2.352593898E-01
  2.333471000E+00 -4.896386995E-02
  9.018560000E-01 -1.023217739E+00
  3.583360000E-01 -1.481586599E-01
  1.410930000E-01  1.021557539E+00
  4.938300000E-02  1.724018298E-01
   p   9
  1.266665700E+02  1.233630000E-03
  2.983738900E+01  9.493409996E-03
  9.394038000E+00  4.293961998E-02
  3.405104000E+00  1.362925399E-01
  1.350000000E+00  2.921362499E-01
  5.576960000E-01  3.887887598E-01
  2.324490000E-01  2.946801399E-01
  9.426400000E-02  8.012875997E-02
  3.299200000E-02  5.405199998E-04
   p   9
  1.266665700E+02 -1.466229998E-03
  2.983738900E+01 -1.182147998E-02
  9.394038000E+00 -4.983125993E-02
  3.405104000E+00 -1.730904198E-01
  1.350000000E+00 -4.732370794E-01
  5.576960000E-01 -2.055113197E-01
  2.324490000E-01  5.910379792E-01
  9.426400000E-02  4.511796794E-01
  3.299200000E-02  1.367471998E-02
   d   4
  2.750000000E+00  1.473016505E-01
  9.625000000E-01  5.502182618E-01
  3.368750000E-01  4.452560414E-01
  1.179060000E-01  4.942869016E-02
 
[MO]
Sym=     1a  
Ene=   -15.8220
Spin= Alpha
Occup=    2.00000
   1         0.96720967
   2        -0.00663900
   3        -0.00125670
   4         0.00000000
   5        -0.00000000
   6         0.00007575
   7        -0.00000000
   8         0.00000000
   9        -0.00006401
  10        -0.00000965
  11        -0.00000000
  12         0.00000000
  13        -0.00000007
  14         0.00000000
  15         0.25388215
  16        -0.00173572
  17        -0.00033856
  18         0.00000000
  19         0.00000000
  20        -0.00004447
  21         0.00000000
  22        -0.00000000
  23         0.00003156
  24        -0.00000256
  25        -0.00000000
  26         0.00000000
  27         0.00000000
  28        -0.00000000
Sym=     2a  
Ene=   -15.8220
Spin= Alpha
Occup=    2.00000
   1        -0.25388315
   2         0.00174969
   3         0.00032090
   4        -0.00000000
   5         0.00000000
   6         0.00000838
   7        -0.00000000
   8        -0.00000000
   9         0.00000006
  10         0.00000255
  11         0.00000000
  12        -0.00000000
  13         0.00000001
  14        -0.00000000
  15         0.96720996
  16        -0.00663911
  17        -0.00125522
  18        -0.00000000
  19         0.00000000
  20        -0.00006191
  21         0.00000000
  22        -0.00000000
  23         0.00005580
  24        -0.00000972
  25        -0.00000000
  26         0.00000000
  27         0.00000001
  28        -0.00000000
Sym=     3a  
Ene=    -1.0270
Spin= Alpha
Occup=    2.00000
   1         0.00482167
   2         0.70955231
   3        -0.01486631
   4        -0.00000000
   5         0.00000000
   6         0.00251974
   7        -0.00000000
   8        -0.00000000
   9         0.00150685
  10         0.00024403
  11        -0.00000000
  12         0.00000000
  13        -0.00000019
  14         0.00000000
  15         0.00477511
  16         0.70312900
  17        -0.01469339
  18         0.00000000
  19        -0.00000000
  20        -0.00263166
  21        -0.00000000
  22        -0.00000000
  23        -0.00151297
  24         0.00024757
  25        -0.00000000
  26         0.00000000
  27         0.00000012
  28        -0.00000000
Sym=     4a  
Ene=    -1.0208
Spin= Alpha
Occup=    2.00000
   1        -0.00483789
   2        -0.70401367
   3         0.01653789
   4        -0.00000000
   5         0.00000000
   6         0.01237402
   7         0.00000000
   8        -0.00000000
   9         0.00065443
  10         0.00035375
  11         0.00000000
  12        -0.00000000
  13         0.00000022
  14        -0.00000000
  15         0.00487901
  16         0.71042998
  17        -0.01665029
  18        -0.00000000
  19         0.00000000
  20         0.01235011
  21         0.00000000
  22        -0.00000000
  23         0.00064095
  24        -0.00035124
  25        -0.00000000
  26         0.00000000
  27         0.00000006
  28        -0.00000000
Sym=     5a  
Ene=    -0.3192
Spin= Alpha
Occup=    2.00000
   1         0.00032269
   2         0.00789573
   3        -0.01029841
   4         0.00000000
   5        -0.00000001
   6        -0.69444408
   7         0.00000000
   8        -0.00000000
   9        -0.08496708
  10        -0.00420074
  11        -0.00000000
  12         0.00000000
  13        -0.00000009
  14        -0.00000000
  15         0.00032269
  16         0.00789752
  17        -0.01029750
  18        -0.00000000
  19         0.00000001
  20         0.69444559
  21        -0.00000000
  22         0.00000000
  23         0.08495117
  24        -0.00420097
  25        -0.00000000
  26         0.00000000
  27        -0.00000054
  28         0.00000000
Sym=     6a  
Ene=    -0.3126
Spin= Alpha
Occup=    2.00000
   1         0.00000000
   2         0.00000000
   3        -0.00000000
   4        -0.00000000
   5         0.70156826
   6         0.00000001
   7        -0.00000000
   8         0.07928803
   9         0.00000000
  10        -0.00000000
  11        -0.00000000
  12         0.00269778
  13         0.00000000
  14        -0.00000000
  15        -0.00000000
  16        -0.00000000
  17         0.00000000
  18        -0.00000000
  19         0.70154996
  20         0.00000001
  21        -0.00000000
  22         0.07925665
  23         0.00000000
  24         0.00000000
  25         0.00000000
  26        -0.00269778
  27        -0.00000000
  28        -0.00000000
Sym=     7a  
Ene=    -0.3126
Spin= Alpha
Occup=    2.00000
   1        -0.00000000
   2        -0.00000000
   3         0.00000000
   4         0.70153856
   5         0.00000000
   6        -0.00000000
   7         0.07929079
   8         0.00000000
   9        -0.00000000
  10         0.00000000
  11         0.00269809
  12         0.00000000
  13        -0.00000000
  14        -0.00000000
  15         0.00000000
  16         0.00000000
  17        -0.00000000
  18         0.70157366
  19         0.00000000
  20        -0.00000000
  21         0.07930330
  22         0.00000000
  23        -0.00000000
  24        -0.00000000
  25        -0.00269830
  26        -0.00000000
  27        -0.00000000
  28         0.00000000
Sym=     8a  
Ene=    -0.1841
Spin= Alpha
Occup=    0.00000
   1        -0.00000000
   2        -0.00000000
   3         0.00000000
   4         0.00000000
   5        -0.70374651
   6         0.00000001
   7         0.00000000
   8        -0.07893656
   9         0.00000000
  10         0.00000000
  11        -0.00000000
  12         0.00198656
  13        -0.00000000
  14         0.00000000
  15        -0.00000000
  16        -0.00000000
  17         0.00000000
  18        -0.00000000
  19         0.70377097
  20        -0.00000001
  21        -0.00000000
  22         0.07891235
  23        -0.00000000
  24         0.00000000
  25        -0.00000000
  26         0.00198630
  27        -0.00000000
  28        -0.00000000
Sym=     9a  
Ene=    -0.1841
Spin= Alpha
Occup=    0.00000
   1         0.00000000
   2         0.00000000
   3        -0.00000000
   4        -0.70377495
   5        -0.00000000
   6        -0.00000000
   7        -0.07894392
   8        -0.00000000
   9        -0.00000000
  10        -0.00000000
  11         0.00198647
  12         0.00000000
  13         0.00000000
  14         0.00000000
  15         0.00000000
  16         0.00000000
  17        -0.00000000
  18         0.70373786
  19         0.00000000
  20         0.00000000
  21         0.07894998
  22         0.00000000
  23         0.00000000
  24        -0.00000000
  25         0.00198622
  26         0.00000000
  27        -0.00000000
  28         0.00000000
Sym=    10a  
Ene=    -0.1723
Spin= Alpha
Occup=    0.00000
   1         0.00029149
   2         0.01714066
   3        -0.00479262
   4         0.00000000
   5        -0.00000001
   6         0.70940611
   7         0.00000000
   8        -0.00000000
   9         0.07867063
  10        -0.00274015
  11         0.00000000
  12        -0.00000000
  13        -0.00000002
  14         0.00000000
  15        -0.00029142
  16        -0.01714213
  17         0.00478908
  18         0.00000000
  19        -0.00000001
  20         0.70940768
  21         0.00000000
  22        -0.00000000
  23         0.07865760
  24         0.00273993
  25        -0.00000000
  26         0.00000000
  27        -0.00000024
  28         0.00000000
Sym=    11a  
Ene=     0.6081
Spin= Alpha
Occup=    0.00000
   1         0.00023993
   2         0.00086407
   3         0.64612722
   4        -0.00000000
   5         0.00000000
   6        -0.06259736
   7        -0.00000000
   8         0.00000000
   9         0.19954806
  10         0.01033069
  11         0.00000000
  12        -0.00000000
  13         0.00000027
  14        -0.00000000
  15         0.00024100
  16         0.00083075
  17         0.64576729
  18         0.00000000
  19        -0.00000000
  20         0.06261030
  21         0.00000000
  22        -0.00000000
  23        -0.19958458
  24         0.01033477
  25         0.00000000
  26        -0.00000000
  27         0.00000140
  28         0.00000000
Sym=    12a  
Ene=     0.6741
Spin= Alpha
Occup=    0.00000
   1        -0.00123874
   2        -0.02044426
   3        -0.68316801
   4        -0.00000000
   5         0.00000000
   6        -0.03616600
   7        -0.00000000
   8         0.00000000
   9         0.19582141
  10         0.00467807
  11        -0.00000000
  12         0.00000000
  13        -0.00000033
  14         0.00000000
  15         0.00124040
  16         0.02041784
  17         0.68340143
  18        -0.00000000
  19         0.00000000
  20        -0.03609623
  21        -0.00000000
  22         0.00000000
  23         0.19549907
  24        -0.00466987
  25         0.00000000
  26        -0.00000000
  27         0.00000051
  28         0.00000000
Sym=    13a  
Ene=     0.7403
Spin= Alpha
Occup=    0.00000
   1         0.00092495
   2         0.01737774
   3         0.25114987
   4         0.00000000
   5        -0.00000000
   6         0.09810716
   7         0.00000000
   8        -0.00000000
   9        -0.63716142
  10        -0.00989325
  11        -0.00000000
  12         0.00000000
  13         0.00000044
  14        -0.00000000
  15         0.00092639
  16         0.01738326
  17         0.25144826
  18        -0.00000000
  19         0.00000000
  20        -0.09809706
  21        -0.00000000
  22         0.00000000
  23         0.63705901
  24        -0.00990074
  25        -0.00000000
  26         0.00000000
  27        -0.00000047
  28         0.00000000
Sym=    14a  
Ene=     0.7673
Spin= Alpha
Occup=    0.00000
   1        -0.00000000
   2        -0.00000000
   3        -0.00000000
   4        -0.08439400
   5         0.00000000
   6        -0.00000000
   7         0.69546570
   8         0.00000000
   9        -0.00000000
  10         0.00000000
  11         0.00461389
  12        -0.00000000
  13        -0.00000000
  14         0.00000000
  15         0.00000000
  16         0.00000000
  17         0.00000000
  18        -0.08431342
  19        -0.00000000
  20        -0.00000000
  21         0.69459087
  22        -0.00000000
  23        -0.00000000
  24        -0.00000000
  25        -0.00462133
  26        -0.00000000
  27         0.00000000
  28        -0.00000000
Sym=    15a  
Ene=     0.7673
Spin= Alpha
Occup=    0.00000
   1         0.00000000
   2         0.00000000
   3         0.00000000
   4         0.00000000
   5        -0.08441289
   6         0.00000000
   7         0.00000000
   8         0.69570943
   9         0.00000000
  10        -0.00000000
  11        -0.00000000
  12         0.00461151
  13        -0.00000000
  14        -0.00000000
  15        -0.00000000
  16        -0.00000000
  17        -0.00000000
  18        -0.00000000
  19        -0.08424462
  20         0.00000000
  21        -0.00000000
  22         0.69435243
  23         0.00000000
  24         0.00000000
  25        -0.00000000
  26        -0.00462227
  27         0.00000000
  28         0.00000000
Sym=    16a  
Ene=     0.8009
Spin= Alpha
Occup=    0.00000
   1         0.00000000
   2         0.00000000
   3         0.00000000
   4         0.07380167
   5        -0.00000000
   6         0.00000000
   7        -0.71002144
   8         0.00000001
   9        -0.00000000
  10        -0.00000000
  11         0.00648993
  12        -0.00000000
  13         0.00000000
  14        -0.00000000
  15         0.00000000
  16         0.00000000
  17         0.00000000
  18        -0.07391376
  19         0.00000000
  20        -0.00000000
  21         0.71087522
  22        -0.00000001
  23         0.00000000
  24        -0.00000000
  25         0.00648456
  26        -0.00000000
  27         0.00000000
  28        -0.00000000
Sym=    17a  
Ene=     0.8009
Spin= Alpha
Occup=    0.00000
   1        -0.00000000
   2        -0.00000000
   3        -0.00000000
   4         0.00000000
   5         0.07376899
   6        -0.00000000
   7        -0.00000001
   8        -0.70978379
   9         0.00000000
  10         0.00000000
  11         0.00000000
  12         0.00649069
  13         0.00000000
  14         0.00000000
  15        -0.00000000
  16        -0.00000000
  17        -0.00000000
  18        -0.00000000
  19        -0.07390180
  20         0.00000000
  21         0.00000001
  22         0.71111751
  23        -0.00000000
  24         0.00000000
  25         0.00000000
  26         0.00648272
  27         0.00000000
  28         0.00000000
Sym=    18a  
Ene=     0.8921
Spin= Alpha
Occup=    0.00000
   1         0.00147455
   2         0.02407647
   3         0.24330400
   4        -0.00000000
   5         0.00000000
   6        -0.03742175
   7         0.00000000
   8        -0.00000000
   9         0.72058110
  10        -0.02930517
  11         0.00000000
  12        -0.00000000
  13        -0.00000005
  14        -0.00000000
  15        -0.00147499
  16        -0.02406627
  17        -0.24329880
  18        -0.00000000
  19         0.00000000
  20        -0.03743630
  21         0.00000000
  22        -0.00000000
  23         0.72075229
  24         0.02930291
  25        -0.00000000
  26         0.00000000
  27        -0.00000003
  28        -0.00000000
Sym=    19a  
Ene=     1.6422
Spin= Alpha
Occup=    0.00000
   1        -0.00005455
   2        -0.00197360
   3        -0.01371160
   4         0.00000000
   5        -0.00000000
   6        -0.00614361
   7         0.00000000
   8        -0.00000000
   9        -0.02754026
  10         0.70433112
  11         0.00000000
  12        -0.00000000
  13        -0.00035750
  14         0.00000000
  15        -0.00005400
  16        -0.00196205
  17        -0.01364771
  18        -0.00000000
  19         0.00000000
  20         0.00612560
  21        -0.00000000
  22         0.00000000
  23         0.02741810
  24         0.70605564
  25         0.00000000
  26        -0.00000000
  27        -0.00162059
  28        -0.00000000
Sym=    20a  
Ene=     1.6472
Spin= Alpha
Occup=    0.00000
   1        -0.00000000
   2        -0.00000000
   3        -0.00000000
   4         0.00330975
   5         0.00000000
   6        -0.00000000
   7         0.00970377
   8         0.00000000
   9        -0.00000000
  10        -0.00000000
  11        -0.70422609
  12        -0.00000000
  13        -0.00000000
  14         0.00000001
  15         0.00000000
  16         0.00000000
  17         0.00000000
  18         0.00329506
  19         0.00000000
  20        -0.00000000
  21         0.00963370
  22         0.00000000
  23        -0.00000000
  24         0.00000000
  25         0.70841707
  26         0.00000000
  27         0.00000000
  28        -0.00000001
Sym=    21a  
Ene=     1.6472
Spin= Alpha
Occup=    0.00000
   1         0.00000000
   2         0.00000000
   3         0.00000000
   4        -0.00000000
   5         0.00330964
   6         0.00000000
   7        -0.00000000
   8         0.00970373
   9         0.00000000
  10         0.00000000
  11         0.00000000
  12        -0.70419891
  13        -0.00000001
  14        -0.00000000
  15        -0.00000000
  16        -0.00000000
  17        -0.00000000
  18        -0.00000000
  19         0.00329487
  20         0.00000000
  21        -0.00000000
  22         0.00963206
  23         0.00000000
  24        -0.00000000
  25        -0.00000000
  26         0.70844410
  27         0.00000001
  28         0.00000000
Sym=    22a  
Ene=     1.6514
Spin= Alpha
Occup=    0.00000
   1        -0.00000000
   2        -0.00000000
   3         0.00000000
   4        -0.00000000
   5         0.00000000
   6         0.00000000
   7        -0.00000000
   8         0.00000000
   9         0.00000000
  10         0.00000000
  11        -0.00000001
  12         0.00000000
  13         0.00000000
  14         0.69817539
  15         0.00000000
  16         0.00000000
  17        -0.00000000
  18         0.00000000
  19        -0.00000000
  20         0.00000000
  21         0.00000000
  22        -0.00000000
  23         0.00000000
  24        -0.00000000
  25        -0.00000001
  26         0.00000000
  27         0.00000000
  28         0.71575543
Sym=    23a  
Ene=     1.6514
Spin= Alpha
Occup=    0.00000
   1         0.00000010
   2         0.00000019
   3        -0.00000477
   4         0.00000000
   5         0.00000000
   6        -0.00000430
   7         0.00000000
   8         0.00000000
   9        -0.00000987
  10         0.00140955
  11         0.00000000
  12         0.00000001
  13         0.69817389
  14        -0.00000000
  15        -0.00000021
  16        -0.00000567
  17        -0.00003536
  18        -0.00000000
  19        -0.00000000
  20         0.00001348
  21        -0.00000000
  22        -0.00000000
  23         0.00006824
  24         0.00057992
  25         0.00000000
  26         0.00000001
  27         0.71575527
  28        -0.00000000
Sym=    24a  
Ene=     1.6544
Spin= Alpha
Occup=    0.00000
   1         0.00000000
   2         0.00000000
   3        -0.00000000
   4         0.00000000
   5        -0.00000000
   6        -0.00000000
   7         0.00000000
   8        -0.00000000
   9        -0.00000000
  10         0.00000000
  11        -0.00000001
  12         0.00000000
  13         0.00000000
  14        -0.71592680
  15         0.00000000
  16         0.00000000
  17        -0.00000000
  18         0.00000000
  19        -0.00000000
  20         0.00000000
  21         0.00000000
  22        -0.00000000
  23         0.00000000
  24         0.00000000
  25         0.00000001
  26        -0.00000000
  27        -0.00000000
  28         0.69835107
Sym=    25a  
Ene=     1.6544
Spin= Alpha
Occup=    0.00000
   1         0.00000008
   2         0.00000190
   3         0.00000900
   4        -0.00000000
   5        -0.00000000
   6         0.00000078
   7        -0.00000000
   8        -0.00000000
   9         0.00001540
  10         0.00118997
  11         0.00000000
  12         0.00000001
  13        -0.71592815
  14        -0.00000000
  15        -0.00000023
  16        -0.00000564
  17        -0.00003368
  18        -0.00000000
  19        -0.00000000
  20         0.00001175
  21        -0.00000000
  22        -0.00000000
  23         0.00006475
  24         0.00004628
  25        -0.00000000
  26        -0.00000001
  27         0.69834867
  28         0.00000000
Sym=    26a  
Ene=     1.6593
Spin= Alpha
Occup=    0.00000
   1         0.00000000
   2         0.00000000
   3         0.00000000
   4         0.00252848
   5        -0.00000000
   6         0.00000000
   7         0.01176517
   8        -0.00000000
   9         0.00000000
  10        -0.00000000
  11         0.70996309
  12        -0.00000000
  13        -0.00000000
  14         0.00000001
  15         0.00000000
  16         0.00000000
  17         0.00000000
  18        -0.00254758
  19         0.00000000
  20        -0.00000000
  21        -0.01182292
  22         0.00000000
  23        -0.00000000
  24        -0.00000000
  25         0.70578129
  26        -0.00000000
  27        -0.00000000
  28         0.00000001
Sym=    27a  
Ene=     1.6593
Spin= Alpha
Occup=    0.00000
   1        -0.00000000
   2        -0.00000000
   3        -0.00000000
   4         0.00000000
   5         0.00252841
   6        -0.00000000
   7         0.00000000
   8         0.01176368
   9        -0.00000000
  10         0.00000000
  11         0.00000000
  12         0.70999006
  13        -0.00000001
  14        -0.00000000
  15        -0.00000000
  16        -0.00000000
  17        -0.00000000
  18        -0.00000000
  19        -0.00254835
  20         0.00000000
  21        -0.00000000
  22        -0.01182325
  23         0.00000000
  24         0.00000000
  25         0.00000000
  26         0.70575417
  27        -0.00000001
  28        -0.00000000
Sym=    28a  
Ene=     1.6706
Spin= Alpha
Occup=    0.00000
   1        -0.00021962
   2        -0.00475429
   3        -0.02594486
   4         0.00000000
   5        -0.00000000
   6        -0.00759739
   7        -0.00000000
   8         0.00000000
   9        -0.04979039
  10        -0.70972785
  11         0.00000000
  12        -0.00000000
  13        -0.00016855
  14         0.00000000
  15         0.00021985
  16         0.00475832
  17         0.02597838
  18         0.00000000
  19         0.00000000
  20        -0.00761241
  21        -0.00000000
  22         0.00000000
  23        -0.04985840
  24         0.70801442
  25        -0.00000000
  26         0.00000000
  27         0.00098417
  28         0.00000000
