[Molden Format]
[N_Atoms]
                     2
[Atoms] (AU)
N1          1      7           0.00000000      0.00000000      0.00000000
N2          2      7           0.00000000      0.00000000      7.74787712
[5D]
[Charge] (Mulliken)
  1.995439993152104E-005
 -1.995439996882453E-005
[GTO] (AU)
   1
   s  14
  7.476171500E+04  1.182599996E-04
  1.112365400E+04  5.172899983E-04
  2.512685700E+03  2.266659992E-03
  7.037772900E+02  9.145289970E-03
  2.254787900E+02  3.239342989E-02
  7.961581000E+01  9.770792967E-02
  3.023728300E+01  2.317036792E-01
  1.226362200E+01  3.768898887E-01
  5.265086000E+00  3.177420689E-01
  2.333471000E+00  8.211308973E-02
  9.018560000E-01  3.312089989E-03
  3.583360000E-01  3.720819988E-03
  1.410930000E-01  3.165419989E-03
  4.938300000E-02  4.595799985E-04
   s  14
  7.476171500E+04 -2.707000010E-05
  1.112365400E+04 -1.183700004E-04
  2.512685700E+03 -5.203800020E-04
  7.037772900E+02 -2.102930008E-03
  2.254787900E+02 -7.568200028E-03
  7.961581000E+01 -2.346767009E-02
  3.023728300E+01 -6.042901023E-02
  1.226362200E+01 -1.170549104E-01
  5.265086000E+00 -1.555321506E-01
  2.333471000E+00 -2.468935009E-02
  9.018560000E-01  3.625054514E-01
  3.583360000E-01  5.550845021E-01
  1.410930000E-01  2.148376908E-01
  4.938300000E-02  8.983850034E-03
   s  14
  7.476171500E+04  1.875999998E-05
  1.112365400E+04  8.117999992E-05
  2.512685700E+03  3.658999997E-04
  7.037772900E+02  1.443039999E-03
  2.254787900E+02  5.531839995E-03
  7.961581000E+01  1.724358998E-02
  3.023728300E+01  5.279547995E-02
  1.226362200E+01  1.152881299E-01
  5.265086000E+00  2.352593898E-01
  2.333471000E+00 -4.896386995E-02
  9.018560000E-01 -1.023217739E+00
  3.583360000E-01 -1.481586599E-01
  1.410930000E-01  1.021557539E+00
  4.938300000E-02  1.724018298E-01
   p   9
  1.266665700E+02  1.233630000E-03
  2.983738900E+01  9.493409996E-03
  9.394038000E+00  4.293961998E-02
  3.405104000E+00  1.362925399E-01
  1.350000000E+00  2.921362499E-01
  5.576960000E-01  3.887887598E-01
  2.324490000E-01  2.946801399E-01
  9.426400000E-02  8.012875997E-02
  3.299200000E-02  5.405199998E-04
   p   9
  1.266665700E+02 -1.466229998E-03
  2.983738900E+01 -1.182147998E-02
  9.394038000E+00 -4.983125993E-02
  3.405104000E+00 -1.730904198E-01
  1.350000000E+00 -4.732370794E-01
  5.576960000E-01 -2.055113197E-01
  2.324490000E-01  5.910379792E-01
  9.426400000E-02  4.511796794E-01
  3.299200000E-02  1.367471998E-02
   d   4
  2.750000000E+00  1.473016505E-01
  9.625000000E-01  5.502182618E-01
  3.368750000E-01  4.452560414E-01
  1.179060000E-01  4.942869016E-02
 
   2
   s  14
  7.476171500E+04  1.182599996E-04
  1.112365400E+04  5.172899983E-04
  2.512685700E+03  2.266659992E-03
  7.037772900E+02  9.145289970E-03
  2.254787900E+02  3.239342989E-02
  7.961581000E+01  9.770792967E-02
  3.023728300E+01  2.317036792E-01
  1.226362200E+01  3.768898887E-01
  5.265086000E+00  3.177420689E-01
  2.333471000E+00  8.211308973E-02
  9.018560000E-01  3.312089989E-03
  3.583360000E-01  3.720819988E-03
  1.410930000E-01  3.165419989E-03
  4.938300000E-02  4.595799985E-04
   s  14
  7.476171500E+04 -2.707000010E-05
  1.112365400E+04 -1.183700004E-04
  2.512685700E+03 -5.203800020E-04
  7.037772900E+02 -2.102930008E-03
  2.254787900E+02 -7.568200028E-03
  7.961581000E+01 -2.346767009E-02
  3.023728300E+01 -6.042901023E-02
  1.226362200E+01 -1.170549104E-01
  5.265086000E+00 -1.555321506E-01
  2.333471000E+00 -2.468935009E-02
  9.018560000E-01  3.625054514E-01
  3.583360000E-01  5.550845021E-01
  1.410930000E-01  2.148376908E-01
  4.938300000E-02  8.983850034E-03
   s  14
  7.476171500E+04  1.875999998E-05
  1.112365400E+04  8.117999992E-05
  2.512685700E+03  3.658999997E-04
  7.037772900E+02  1.443039999E-03
  2.254787900E+02  5.531839995E-03
  7.961581000E+01  1.724358998E-02
  3.023728300E+01  5.279547995E-02
  1.226362200E+01  1.152881299E-01
  5.265086000E+00  2.352593898E-01
  2.333471000E+00 -4.896386995E-02
  9.018560000E-01 -1.023217739E+00
  3.583360000E-01 -1.481586599E-01
  1.410930000E-01  1.021557539E+00
  4.938300000E-02  1.724018298E-01
   p   9
  1.266665700E+02  1.233630000E-03
  2.983738900E+01  9.493409996E-03
  9.394038000E+00  4.293961998E-02
  3.405104000E+00  1.362925399E-01
  1.350000000E+00  2.921362499E-01
  5.576960000E-01  3.887887598E-01
  2.324490000E-01  2.946801399E-01
  9.426400000E-02  8.012875997E-02
  3.299200000E-02  5.405199998E-04
   p   9
  1.266665700E+02 -1.466229998E-03
  2.983738900E+01 -1.182147998E-02
  9.394038000E+00 -4.983125993E-02
  3.405104000E+00 -1.730904198E-01
  1.350000000E+00 -4.732370794E-01
  5.576960000E-01 -2.055113197E-01
  2.324490000E-01  5.910379792E-01
  9.426400000E-02  4.511796794E-01
  3.299200000E-02  1.367471998E-02
   d   4
  2.750000000E+00  1.473016505E-01
  9.625000000E-01  5.502182618E-01
  3.368750000E-01  4.452560414E-01
  1.179060000E-01  4.942869016E-02
 
[MO]
Sym=     1a  
Ene=   -15.8220
Spin= Alpha
Occup=    2.00000
   1         0.96682813
   2        -0.00663637
   3        -0.00125622
   4         0.00000000
   5        -0.00000000
   6         0.00007576
   7        -0.00000000
   8         0.00000000
   9        -0.00006401
  10        -0.00000964
  11        -0.00000000
  12        -0.00000000
  13        -0.00000007
  14        -0.00000000
  15         0.25533130
  16        -0.00174566
  17        -0.00034044
  18        -0.00000000
  19         0.00000000
  20        -0.00004456
  21         0.00000000
  22        -0.00000000
  23         0.00003164
  24        -0.00000257
  25         0.00000000
  26         0.00000000
  27         0.00000000
  28        -0.00000000
Sym=     2a  
Ene=   -15.8220
Spin= Alpha
Occup=    2.00000
   1        -0.25533230
   2         0.00175964
   3         0.00032278
   4        -0.00000000
   5        -0.00000000
   6         0.00000827
   7        -0.00000000
   8        -0.00000000
   9         0.00000015
  10         0.00000257
  11         0.00000000
  12         0.00000000
  13         0.00000001
  14         0.00000000
  15         0.96682841
  16        -0.00663650
  17        -0.00125471
  18         0.00000000
  19         0.00000000
  20        -0.00006185
  21         0.00000000
  22        -0.00000000
  23         0.00005575
  24        -0.00000971
  25         0.00000000
  26         0.00000000
  27         0.00000001
  28        -0.00000000
Sym=     3a  
Ene=    -1.0270
Spin= Alpha
Occup=    2.00000
   1         0.00482157
   2         0.70953798
   3        -0.01486599
   4        -0.00000000
   5         0.00000000
   6         0.00251999
   7        -0.00000000
   8         0.00000000
   9         0.00150687
  10         0.00024404
  11        -0.00000000
  12        -0.00000000
  13        -0.00000019
  14        -0.00000000
  15         0.00477521
  16         0.70314346
  17        -0.01469374
  18         0.00000000
  19         0.00000000
  20        -0.00263140
  21         0.00000000
  22         0.00000000
  23        -0.00151296
  24         0.00024756
  25         0.00000000
  26         0.00000000
  27         0.00000012
  28        -0.00000000
Sym=     4a  
Ene=    -1.0208
Spin= Alpha
Occup=    2.00000
   1        -0.00483799
   2        -0.70402812
   3         0.01653820
   4        -0.00000000
   5         0.00000000
   6         0.01237397
   7        -0.00000000
   8         0.00000000
   9         0.00065440
  10         0.00035375
  11         0.00000000
  12         0.00000000
  13         0.00000022
  14         0.00000000
  15         0.00487891
  16         0.71041566
  17        -0.01665001
  18         0.00000000
  19         0.00000000
  20         0.01235018
  21         0.00000000
  22         0.00000000
  23         0.00064099
  24        -0.00035125
  25         0.00000000
  26         0.00000000
  27         0.00000006
  28        -0.00000000
Sym=     5a  
Ene=    -0.3192
Spin= Alpha
Occup=    2.00000
   1         0.00032269
   2         0.00789574
   3        -0.01029841
   4         0.00000000
   5         0.00000000
   6        -0.69444401
   7         0.00000000
   8         0.00000000
   9        -0.08496707
  10        -0.00420074
  11         0.00000000
  12         0.00000000
  13        -0.00000009
  14        -0.00000000
  15         0.00032269
  16         0.00789751
  17        -0.01029751
  18         0.00000000
  19         0.00000000
  20         0.69444566
  21         0.00000000
  22         0.00000000
  23         0.08495117
  24        -0.00420098
  25        -0.00000000
  26        -0.00000000
  27        -0.00000054
  28         0.00000000
Sym=     6a  
Ene=    -0.3126
Spin= Alpha
Occup=    2.00000
   1        -0.00000000
   2         0.00000000
   3         0.00000000
   4        -0.00000002
   5         0.70156792
   6         0.00000000
   7        -0.00000000
   8         0.07928801
   9         0.00000000
  10         0.00000000
  11        -0.00000000
  12         0.00269778
  13         0.00000000
  14         0.00000000
  15        -0.00000000
  16        -0.00000000
  17         0.00000000
  18        -0.00000002
  19         0.70155030
  20        -0.00000000
  21        -0.00000000
  22         0.07925669
  23        -0.00000000
  24         0.00000000
  25         0.00000000
  26        -0.00269778
  27        -0.00000000
  28        -0.00000000
Sym=     7a  
Ene=    -0.3126
Spin= Alpha
Occup=    2.00000
   1        -0.00000000
   2        -0.00000000
   3         0.00000000
   4         0.70153897
   5         0.00000002
   6         0.00000000
   7         0.07929085
   8         0.00000000
   9         0.00000000
  10         0.00000000
  11         0.00269809
  12         0.00000000
  13         0.00000000
  14        -0.00000000
  15        -0.00000000
  16        -0.00000000
  17         0.00000000
  18         0.70157325
  19         0.00000002
  20        -0.00000000
  21         0.07930330
  22         0.00000000
  23        -0.00000000
  24         0.00000000
  25        -0.00269830
  26        -0.00000000
  27        -0.00000000
  28         0.00000000
Sym=     8a  
Ene=    -0.1841
Spin= Alpha
Occup=    0.00000
   1        -0.00000000
   2        -0.00000000
   3         0.00000000
   4         0.00000002
   5        -0.70374683
   6         0.00000000
   7         0.00000000
   8        -0.07893667
   9         0.00000000
  10         0.00000000
  11        -0.00000000
  12         0.00198656
  13        -0.00000000
  14         0.00000000
  15        -0.00000000
  16        -0.00000000
  17         0.00000000
  18        -0.00000002
  19         0.70377065
  20         0.00000000
  21        -0.00000000
  22         0.07891224
  23        -0.00000000
  24         0.00000000
  25        -0.00000000
  26         0.00198630
  27        -0.00000000
  28        -0.00000000
Sym=     9a  
Ene=    -0.1841
Spin= Alpha
Occup=    0.00000
   1         0.00000000
   2         0.00000000
   3        -0.00000000
   4        -0.70377455
   5        -0.00000002
   6         0.00000000
   7        -0.07894385
   8        -0.00000000
   9         0.00000000
  10        -0.00000000
  11         0.00198647
  12         0.00000000
  13         0.00000000
  14         0.00000000
  15        -0.00000000
  16        -0.00000000
  17         0.00000000
  18         0.70373826
  19         0.00000002
  20         0.00000000
  21         0.07895006
  22         0.00000000
  23         0.00000000
  24         0.00000000
  25         0.00198622
  26         0.00000000
  27        -0.00000000
  28         0.00000000
Sym=    10a  
Ene=    -0.1723
Spin= Alpha
Occup=    0.00000
   1         0.00029149
   2         0.01714066
   3        -0.00479261
   4         0.00000000
   5        -0.00000000
   6         0.70940617
   7         0.00000000
   8        -0.00000000
   9         0.07867069
  10        -0.00274015
  11        -0.00000000
  12        -0.00000000
  13        -0.00000002
  14        -0.00000000
  15        -0.00029142
  16        -0.01714214
  17         0.00478909
  18        -0.00000000
  19        -0.00000000
  20         0.70940762
  21        -0.00000000
  22        -0.00000000
  23         0.07865754
  24         0.00273993
  25        -0.00000000
  26         0.00000000
  27        -0.00000024
  28        -0.00000000
Sym=    11a  
Ene=     0.6081
Spin= Alpha
Occup=    0.00000
   1         0.00023992
   2         0.00086406
   3         0.64612643
   4        -0.00000000
   5         0.00000000
   6        -0.06259742
   7         0.00000000
   8         0.00000000
   9         0.19954813
  10         0.01033069
  11         0.00000000
  12        -0.00000000
  13         0.00000027
  14         0.00000000
  15         0.00024100
  16         0.00083079
  17         0.64576809
  18        -0.00000000
  19        -0.00000000
  20         0.06261025
  21        -0.00000000
  22        -0.00000000
  23        -0.19958451
  24         0.01033476
  25        -0.00000000
  26        -0.00000000
  27         0.00000141
  28        -0.00000000
Sym=    12a  
Ene=     0.6741
Spin= Alpha
Occup=    0.00000
   1        -0.00123874
   2        -0.02044426
   3        -0.68316847
   4        -0.00000000
   5        -0.00000000
   6        -0.03616584
   7         0.00000000
   8         0.00000000
   9         0.19582057
  10         0.00467805
  11        -0.00000000
  12         0.00000000
  13        -0.00000032
  14        -0.00000000
  15         0.00124040
  16         0.02041787
  17         0.68340097
  18        -0.00000000
  19        -0.00000000
  20        -0.03609639
  21         0.00000000
  22         0.00000000
  23         0.19549991
  24        -0.00466989
  25        -0.00000000
  26        -0.00000000
  27         0.00000051
  28        -0.00000000
Sym=    13a  
Ene=     0.7403
Spin= Alpha
Occup=    0.00000
   1         0.00092495
   2         0.01737778
   3         0.25115067
   4         0.00000000
   5        -0.00000000
   6         0.09810722
   7        -0.00000000
   8        -0.00000000
   9        -0.63716119
  10        -0.00989327
  11         0.00000000
  12         0.00000000
  13         0.00000043
  14         0.00000000
  15         0.00092638
  16         0.01738323
  17         0.25144744
  18         0.00000000
  19         0.00000000
  20        -0.09809700
  21         0.00000000
  22         0.00000000
  23         0.63705924
  24        -0.00990072
  25         0.00000000
  26         0.00000000
  27        -0.00000047
  28        -0.00000000
Sym=    14a  
Ene=     0.7673
Spin= Alpha
Occup=    0.00000
   1         0.00000000
   2         0.00000000
   3         0.00000000
   4        -0.08439381
   5         0.00000000
   6        -0.00000000
   7         0.69546394
   8        -0.00000001
   9         0.00000000
  10        -0.00000000
  11         0.00461390
  12        -0.00000000
  13         0.00000000
  14         0.00000000
  15        -0.00000000
  16        -0.00000000
  17        -0.00000000
  18        -0.08431366
  19         0.00000000
  20         0.00000000
  21         0.69459263
  22        -0.00000001
  23        -0.00000000
  24         0.00000000
  25        -0.00462132
  26         0.00000000
  27        -0.00000000
  28        -0.00000000
Sym=    15a  
Ene=     0.7673
Spin= Alpha
Occup=    0.00000
   1         0.00000000
   2         0.00000000
   3         0.00000000
   4        -0.00000000
   5        -0.08441272
   6         0.00000000
   7         0.00000001
   8         0.69570690
   9         0.00000000
  10        -0.00000000
  11         0.00000000
  12         0.00461153
  13        -0.00000000
  14         0.00000000
  15        -0.00000000
  16        -0.00000000
  17        -0.00000000
  18        -0.00000000
  19        -0.08424482
  20         0.00000000
  21         0.00000001
  22         0.69435496
  23         0.00000000
  24         0.00000000
  25        -0.00000000
  26        -0.00462224
  27         0.00000000
  28        -0.00000000
Sym=    16a  
Ene=     0.8009
Spin= Alpha
Occup=    0.00000
   1        -0.00000000
   2        -0.00000000
   3        -0.00000000
   4         0.07380187
   5        -0.00000000
   6        -0.00000000
   7        -0.71002318
   8         0.00000005
   9         0.00000000
  10         0.00000000
  11         0.00648991
  12        -0.00000000
  13        -0.00000000
  14        -0.00000000
  15        -0.00000000
  16        -0.00000000
  17        -0.00000000
  18        -0.07391357
  19         0.00000001
  20         0.00000000
  21         0.71087349
  22        -0.00000005
  23        -0.00000000
  24         0.00000000
  25         0.00648457
  26        -0.00000000
  27        -0.00000000
  28        -0.00000000
Sym=    17a  
Ene=     0.8009
Spin= Alpha
Occup=    0.00000
   1        -0.00000000
   2        -0.00000000
   3        -0.00000000
   4         0.00000001
   5         0.07376931
   6        -0.00000000
   7        -0.00000005
   8        -0.70978626
   9         0.00000000
  10         0.00000000
  11         0.00000000
  12         0.00649067
  13         0.00000000
  14        -0.00000000
  15        -0.00000000
  16        -0.00000000
  17        -0.00000000
  18        -0.00000000
  19        -0.07390149
  20         0.00000000
  21         0.00000005
  22         0.71111505
  23        -0.00000000
  24         0.00000000
  25         0.00000000
  26         0.00648273
  27         0.00000000
  28        -0.00000000
Sym=    18a  
Ene=     0.8921
Spin= Alpha
Occup=    0.00000
   1         0.00147455
   2         0.02407646
   3         0.24330398
   4        -0.00000000
   5         0.00000000
   6        -0.03742182
   7        -0.00000000
   8        -0.00000000
   9         0.72058151
  10        -0.02930515
  11         0.00000000
  12        -0.00000000
  13        -0.00000005
  14         0.00000000
  15        -0.00147500
  16        -0.02406628
  17        -0.24329882
  18         0.00000000
  19         0.00000000
  20        -0.03743622
  21        -0.00000000
  22        -0.00000000
  23         0.72075188
  24         0.02930293
  25         0.00000000
  26         0.00000000
  27        -0.00000003
  28         0.00000000
Sym=    19a  
Ene=     1.6422
Spin= Alpha
Occup=    0.00000
   1        -0.00005455
   2        -0.00197362
   3        -0.01371171
   4         0.00000000
   5        -0.00000000
   6        -0.00614365
   7        -0.00000000
   8        -0.00000000
   9        -0.02754047
  10         0.70432819
  11         0.00000000
  12        -0.00000000
  13        -0.00035704
  14        -0.00000000
  15        -0.00005400
  16        -0.00196203
  17        -0.01364760
  18         0.00000000
  19         0.00000000
  20         0.00612557
  21        -0.00000000
  22         0.00000000
  23         0.02741789
  24         0.70605856
  25        -0.00000000
  26        -0.00000000
  27        -0.00162109
  28         0.00000000
Sym=    20a  
Ene=     1.6472
Spin= Alpha
Occup=    0.00000
   1        -0.00000000
   2        -0.00000000
   3         0.00000000
   4         0.00330978
   5         0.00000000
   6        -0.00000000
   7         0.00970389
   8         0.00000000
   9        -0.00000000
  10         0.00000000
  11        -0.70421874
  12        -0.00000001
  13         0.00000000
  14         0.00000000
  15        -0.00000000
  16        -0.00000000
  17        -0.00000000
  18         0.00329504
  19         0.00000000
  20         0.00000000
  21         0.00963357
  22         0.00000000
  23         0.00000000
  24         0.00000000
  25         0.70842438
  26         0.00000001
  27        -0.00000000
  28        -0.00000000
Sym=    21a  
Ene=     1.6472
Spin= Alpha
Occup=    0.00000
   1         0.00000000
   2         0.00000000
   3         0.00000000
   4        -0.00000000
   5         0.00330966
   6         0.00000000
   7        -0.00000000
   8         0.00970384
   9         0.00000000
  10         0.00000000
  11         0.00000001
  12        -0.70419236
  13        -0.00000000
  14         0.00000000
  15        -0.00000000
  16        -0.00000000
  17        -0.00000000
  18        -0.00000000
  19         0.00329485
  20         0.00000000
  21        -0.00000000
  22         0.00963195
  23         0.00000000
  24        -0.00000000
  25        -0.00000001
  26         0.70845062
  27         0.00000000
  28        -0.00000000
Sym=    22a  
Ene=     1.6514
Spin= Alpha
Occup=    0.00000
   1         0.00000000
   2         0.00000000
   3        -0.00000000
   4        -0.00000000
   5         0.00000000
   6        -0.00000000
   7        -0.00000000
   8        -0.00000000
   9        -0.00000000
  10        -0.00000000
  11        -0.00000000
  12        -0.00000000
  13        -0.00000000
  14         0.69814534
  15         0.00000000
  16         0.00000000
  17         0.00000000
  18         0.00000000
  19         0.00000000
  20        -0.00000000
  21         0.00000000
  22         0.00000000
  23        -0.00000000
  24         0.00000000
  25        -0.00000000
  26         0.00000000
  27        -0.00000000
  28         0.71578474
Sym=    23a  
Ene=     1.6514
Spin= Alpha
Occup=    0.00000
   1         0.00000010
   2         0.00000019
   3        -0.00000476
   4         0.00000000
   5         0.00000000
   6        -0.00000430
   7        -0.00000000
   8         0.00000000
   9        -0.00000985
  10         0.00140991
  11        -0.00000000
  12         0.00000000
  13         0.69814385
  14         0.00000000
  15        -0.00000021
  16        -0.00000567
  17        -0.00003537
  18         0.00000000
  19        -0.00000000
  20         0.00001348
  21         0.00000000
  22        -0.00000000
  23         0.00006827
  24         0.00057967
  25         0.00000000
  26         0.00000000
  27         0.71578457
  28         0.00000000
Sym=    24a  
Ene=     1.6544
Spin= Alpha
Occup=    0.00000
   1        -0.00000000
   2        -0.00000000
   3         0.00000000
   4         0.00000000
   5         0.00000000
   6         0.00000000
   7         0.00000000
   8         0.00000000
   9         0.00000000
  10        -0.00000000
  11        -0.00000000
  12        -0.00000000
  13        -0.00000000
  14        -0.71595610
  15         0.00000000
  16         0.00000000
  17         0.00000000
  18         0.00000000
  19         0.00000000
  20        -0.00000000
  21         0.00000000
  22         0.00000000
  23        -0.00000000
  24        -0.00000000
  25         0.00000000
  26         0.00000000
  27         0.00000000
  28         0.69832103
Sym=    25a  
Ene=     1.6544
Spin= Alpha
Occup=    0.00000
   1         0.00000008
   2         0.00000190
   3         0.00000899
   4         0.00000000
   5        -0.00000000
   6         0.00000078
   7         0.00000000
   8        -0.00000000
   9         0.00001538
  10         0.00119038
  11        -0.00000000
  12         0.00000000
  13        -0.71595745
  14         0.00000000
  15        -0.00000023
  16        -0.00000564
  17        -0.00003369
  18         0.00000000
  19        -0.00000000
  20         0.00001175
  21         0.00000000
  22        -0.00000000
  23         0.00006477
  24         0.00004675
  25         0.00000000
  26        -0.00000000
  27         0.69831863
  28        -0.00000000
Sym=    26a  
Ene=     1.6593
Spin= Alpha
Occup=    0.00000
   1         0.00000000
   2         0.00000000
   3        -0.00000000
   4         0.00252844
   5         0.00000000
   6         0.00000000
   7         0.01176507
   8         0.00000000
   9         0.00000000
  10         0.00000000
  11         0.70997038
  12         0.00000002
  13         0.00000000
  14         0.00000000
  15        -0.00000000
  16        -0.00000000
  17        -0.00000000
  18        -0.00254761
  19        -0.00000000
  20         0.00000000
  21        -0.01182302
  22        -0.00000000
  23         0.00000000
  24         0.00000000
  25         0.70577395
  26         0.00000002
  27         0.00000000
  28         0.00000000
Sym=    27a  
Ene=     1.6593
Spin= Alpha
Occup=    0.00000
   1        -0.00000000
   2        -0.00000000
   3        -0.00000000
   4        -0.00000000
   5         0.00252838
   6        -0.00000000
   7        -0.00000000
   8         0.01176360
   9        -0.00000000
  10         0.00000000
  11        -0.00000002
  12         0.70999656
  13        -0.00000000
  14         0.00000000
  15        -0.00000000
  16        -0.00000000
  17        -0.00000000
  18         0.00000000
  19        -0.00254838
  20         0.00000000
  21         0.00000000
  22        -0.01182334
  23         0.00000000
  24         0.00000000
  25        -0.00000002
  26         0.70574763
  27        -0.00000000
  28         0.00000000
Sym=    28a  
Ene=     1.6706
Spin= Alpha
Occup=    0.00000
   1        -0.00021962
   2        -0.00475428
   3        -0.02594481
   4         0.00000000
   5         0.00000000
   6        -0.00759736
   7         0.00000000
   8         0.00000000
   9        -0.04979028
  10        -0.70973075
  11         0.00000000
  12        -0.00000000
  13        -0.00016826
  14        -0.00000000
  15         0.00021985
  16         0.00475833
  17         0.02597844
  18        -0.00000000
  19         0.00000000
  20        -0.00761243
  21        -0.00000000
  22         0.00000000
  23        -0.04985851
  24         0.70801151
  25         0.00000000
  26         0.00000000
  27         0.00098446
  28        -0.00000000
