[Molden Format]
[N_Atoms]
                     2
[Atoms] (AU)
N1          1      7           0.00000000      0.00000000      0.00000000
N2          2      7           0.00000000      0.00000000      7.74787712
[5D]
[Charge] (Mulliken)
  1.995807131827121E-005
 -1.995807133248206E-005
[GTO] (AU)
   1
   s  14
  7.476171500E+04  1.182599996E-04
  1.112365400E+04  5.172899983E-04
  2.512685700E+03  2.266659992E-03
  7.037772900E+02  9.145289970E-03
  2.254787900E+02  3.239342989E-02
  7.961581000E+01  9.770792967E-02
  3.023728300E+01  2.317036792E-01
  1.226362200E+01  3.768898887E-01
  5.265086000E+00  3.177420689E-01
  2.333471000E+00  8.211308973E-02
  9.018560000E-01  3.312089989E-03
  3.583360000E-01  3.720819988E-03
  1.410930000E-01  3.165419989E-03
  4.938300000E-02  4.595799985E-04
   s  14
  7.476171500E+04 -2.707000010E-05
  1.112365400E+04 -1.183700004E-04
  2.512685700E+03 -5.203800020E-04
  7.037772900E+02 -2.102930008E-03
  2.254787900E+02 -7.568200028E-03
  7.961581000E+01 -2.346767009E-02
  3.023728300E+01 -6.042901023E-02
  1.226362200E+01 -1.170549104E-01
  5.265086000E+00 -1.555321506E-01
  2.333471000E+00 -2.468935009E-02
  9.018560000E-01  3.625054514E-01
  3.583360000E-01  5.550845021E-01
  1.410930000E-01  2.148376908E-01
  4.938300000E-02  8.983850034E-03
   s  14
  7.476171500E+04  1.875999998E-05
  1.112365400E+04  8.117999992E-05
  2.512685700E+03  3.658999997E-04
  7.037772900E+02  1.443039999E-03
  2.254787900E+02  5.531839995E-03
  7.961581000E+01  1.724358998E-02
  3.023728300E+01  5.279547995E-02
  1.226362200E+01  1.152881299E-01
  5.265086000E+00  2.352593898E-01
  2.333471000E+00 -4.896386995E-02
  9.018560000E-01 -1.023217739E+00
  3.583360000E-01 -1.481586599E-01
  1.410930000E-01  1.021557539E+00
  4.938300000E-02  1.724018298E-01
   p   9
  1.266665700E+02  1.233630000E-03
  2.983738900E+01  9.493409996E-03
  9.394038000E+00  4.293961998E-02
  3.405104000E+00  1.362925399E-01
  1.350000000E+00  2.921362499E-01
  5.576960000E-01  3.887887598E-01
  2.324490000E-01  2.946801399E-01
  9.426400000E-02  8.012875997E-02
  3.299200000E-02  5.405199998E-04
   p   9
  1.266665700E+02 -1.466229998E-03
  2.983738900E+01 -1.182147998E-02
  9.394038000E+00 -4.983125993E-02
  3.405104000E+00 -1.730904198E-01
  1.350000000E+00 -4.732370794E-01
  5.576960000E-01 -2.055113197E-01
  2.324490000E-01  5.910379792E-01
  9.426400000E-02  4.511796794E-01
  3.299200000E-02  1.367471998E-02
   d   4
  2.750000000E+00  1.473016505E-01
  9.625000000E-01  5.502182618E-01
  3.368750000E-01  4.452560414E-01
  1.179060000E-01  4.942869016E-02
 
   2
   s  14
  7.476171500E+04  1.182599996E-04
  1.112365400E+04  5.172899983E-04
  2.512685700E+03  2.266659992E-03
  7.037772900E+02  9.145289970E-03
  2.254787900E+02  3.239342989E-02
  7.961581000E+01  9.770792967E-02
  3.023728300E+01  2.317036792E-01
  1.226362200E+01  3.768898887E-01
  5.265086000E+00  3.177420689E-01
  2.333471000E+00  8.211308973E-02
  9.018560000E-01  3.312089989E-03
  3.583360000E-01  3.720819988E-03
  1.410930000E-01  3.165419989E-03
  4.938300000E-02  4.595799985E-04
   s  14
  7.476171500E+04 -2.707000010E-05
  1.112365400E+04 -1.183700004E-04
  2.512685700E+03 -5.203800020E-04
  7.037772900E+02 -2.102930008E-03
  2.254787900E+02 -7.568200028E-03
  7.961581000E+01 -2.346767009E-02
  3.023728300E+01 -6.042901023E-02
  1.226362200E+01 -1.170549104E-01
  5.265086000E+00 -1.555321506E-01
  2.333471000E+00 -2.468935009E-02
  9.018560000E-01  3.625054514E-01
  3.583360000E-01  5.550845021E-01
  1.410930000E-01  2.148376908E-01
  4.938300000E-02  8.983850034E-03
   s  14
  7.476171500E+04  1.875999998E-05
  1.112365400E+04  8.117999992E-05
  2.512685700E+03  3.658999997E-04
  7.037772900E+02  1.443039999E-03
  2.254787900E+02  5.531839995E-03
  7.961581000E+01  1.724358998E-02
  3.023728300E+01  5.279547995E-02
  1.226362200E+01  1.152881299E-01
  5.265086000E+00  2.352593898E-01
  2.333471000E+00 -4.896386995E-02
  9.018560000E-01 -1.023217739E+00
  3.583360000E-01 -1.481586599E-01
  1.410930000E-01  1.021557539E+00
  4.938300000E-02  1.724018298E-01
   p   9
  1.266665700E+02  1.233630000E-03
  2.983738900E+01  9.493409996E-03
  9.394038000E+00  4.293961998E-02
  3.405104000E+00  1.362925399E-01
  1.350000000E+00  2.921362499E-01
  5.576960000E-01  3.887887598E-01
  2.324490000E-01  2.946801399E-01
  9.426400000E-02  8.012875997E-02
  3.299200000E-02  5.405199998E-04
   p   9
  1.266665700E+02 -1.466229998E-03
  2.983738900E+01 -1.182147998E-02
  9.394038000E+00 -4.983125993E-02
  3.405104000E+00 -1.730904198E-01
  1.350000000E+00 -4.732370794E-01
  5.576960000E-01 -2.055113197E-01
  2.324490000E-01  5.910379792E-01
  9.426400000E-02  4.511796794E-01
  3.299200000E-02  1.367471998E-02
   d   4
  2.750000000E+00  1.473016505E-01
  9.625000000E-01  5.502182618E-01
  3.368750000E-01  4.452560414E-01
  1.179060000E-01  4.942869016E-02
 
[MO]
Sym=     1a  
Ene=     0.0000
Spin= Alpha
Occup=    0.00000
   1         1.00000002
   2         0.00000051
   3         0.00000000
   4         0.00000000
   5         0.00000000
   6         0.00000103
   7         0.00000000
   8         0.00000000
   9        -0.00000000
  10         0.00000000
  11         0.00000000
  12         0.00000000
  13         0.00000000
  14         0.00000000
  15        -0.00000199
  16        -0.00003988
  17        -0.00000000
  18         0.00000000
  19         0.00000000
  20         0.00011679
  21         0.00000000
  22         0.00000000
  23         0.00000000
  24        -0.00000000
  25         0.00000000
  26         0.00000000
  27        -0.00000000
  28         0.00000000
Sym=     2a  
Ene=     0.0000
Spin= Alpha
Occup=    0.00000
   1         0.00000050
   2         1.00001121
   3        -0.00000000
   4         0.00000000
   5         0.00000000
   6         0.00002287
   7         0.00000000
   8         0.00000000
   9        -0.00000000
  10         0.00000000
  11         0.00000000
  12         0.00000000
  13        -0.00000000
  14         0.00000000
  15        -0.00003988
  16        -0.00102382
  17         0.00000000
  18         0.00000000
  19         0.00000000
  20         0.00253394
  21         0.00000000
  22         0.00000000
  23        -0.00000000
  24        -0.00000000
  25         0.00000000
  26         0.00000000
  27         0.00000000
  28         0.00000000
Sym=     3a  
Ene=     0.0000
Spin= Alpha
Occup=    0.00000
   1         0.00007486
   2         0.00132779
   3         1.00303608
   4         0.00000000
   5         0.00000000
   6         0.00211280
   7         0.00000000
   8         0.00000000
   9         0.00482603
  10         0.00102127
  11         0.00000000
  12         0.00000000
  13         0.00000000
  14         0.00000000
  15        -0.00080827
  16        -0.01342959
  17        -0.02281830
  18         0.00000000
  19         0.00000000
  20         0.02074932
  21         0.00000000
  22         0.00000000
  23         0.03587396
  24        -0.00667561
  25         0.00000000
  26         0.00000000
  27        -0.00000000
  28         0.00000000
Sym=     4a  
Ene=     0.0000
Spin= Alpha
Occup=    0.00000
   1         0.00000000
   2         0.00000000
   3         0.00000000
   4         1.00000076
   5         0.00000000
   6         0.00000000
   7         0.00000000
   8         0.00000000
   9         0.00000000
  10         0.00000000
  11         0.00000000
  12         0.00000000
  13         0.00000000
  14         0.00000000
  15         0.00000000
  16         0.00000000
  17         0.00000000
  18        -0.00071299
  19         0.00000000
  20         0.00000000
  21         0.00000000
  22         0.00000000
  23         0.00000000
  24         0.00000000
  25         0.00000000
  26         0.00000000
  27         0.00000000
  28         0.00000000
Sym=     5a  
Ene=     0.0000
Spin= Alpha
Occup=    0.00000
   1         0.00000000
   2         0.00000000
   3         0.00000000
   4         0.00008045
   5         0.00000000
   6         0.00000000
   7         1.00021262
   8         0.00000000
   9         0.00000000
  10         0.00000000
  11         0.00006770
  12         0.00000000
  13         0.00000000
  14         0.00000000
  15         0.00000000
  16         0.00000000
  17         0.00000000
  18        -0.00607986
  19         0.00000000
  20         0.00000000
  21        -0.01082883
  22         0.00000000
  23         0.00000000
  24         0.00000000
  25         0.00349371
  26         0.00000000
  27         0.00000000
  28         0.00000000
Sym=     6a  
Ene=     0.0000
Spin= Alpha
Occup=    0.00000
   1         0.00000000
   2         0.00000000
   3         0.00000000
   4         0.00000000
   5         1.00000076
   6         0.00000000
   7         0.00000000
   8         0.00000000
   9         0.00000000
  10         0.00000000
  11         0.00000000
  12         0.00000000
  13         0.00000000
  14         0.00000000
  15         0.00000000
  16         0.00000000
  17         0.00000000
  18         0.00000000
  19        -0.00071299
  20         0.00000000
  21         0.00000000
  22         0.00000000
  23         0.00000000
  24         0.00000000
  25         0.00000000
  26         0.00000000
  27         0.00000000
  28         0.00000000
Sym=     7a  
Ene=     0.0000
Spin= Alpha
Occup=    0.00000
   1         0.00000000
   2         0.00000000
   3         0.00000000
   4         0.00000000
   5         0.00008045
   6         0.00000000
   7         0.00000000
   8         1.00021262
   9         0.00000000
  10         0.00000000
  11         0.00000000
  12         0.00006770
  13         0.00000000
  14         0.00000000
  15         0.00000000
  16         0.00000000
  17         0.00000000
  18         0.00000000
  19        -0.00607986
  20         0.00000000
  21         0.00000000
  22        -0.01082883
  23         0.00000000
  24         0.00000000
  25         0.00000000
  26         0.00349371
  27         0.00000000
  28         0.00000000
Sym=     8a  
Ene=     0.0000
Spin= Alpha
Occup=    0.00000
   1         0.00000103
   2         0.00002287
   3        -0.00000000
   4         0.00000000
   5         0.00000000
   6         1.00004703
   7         0.00000000
   8         0.00000000
   9         0.00000000
  10         0.00000000
  11         0.00000000
  12         0.00000000
  13         0.00000000
  14         0.00000000
  15        -0.00011679
  16        -0.00253394
  17        -0.00000000
  18         0.00000000
  19         0.00000000
  20         0.00499182
  21         0.00000000
  22         0.00000000
  23        -0.00000000
  24        -0.00000000
  25         0.00000000
  26         0.00000000
  27        -0.00000000
  28         0.00000000
Sym=     9a  
Ene=     0.0000
Spin= Alpha
Occup=    0.00000
   1         0.00011835
   2         0.00210837
   3         0.00482742
   4         0.00000000
   5         0.00000000
   6         0.00337456
   7         0.00000000
   8         0.00000000
   9         1.00769693
  10         0.00162441
  11         0.00000000
  12         0.00000000
  13         0.00000000
  14         0.00000000
  15        -0.00140320
  16        -0.02450163
  17        -0.03588061
  18         0.00000000
  19         0.00000000
  20         0.03730036
  21         0.00000000
  22         0.00000000
  23         0.05567915
  24        -0.01264522
  25         0.00000000
  26         0.00000000
  27        -0.00000000
  28         0.00000000
Sym=    10a  
Ene=     0.0000
Spin= Alpha
Occup=    0.00000
   1         0.00000000
   2         0.00000000
   3         0.00000000
   4         0.00000000
   5         0.00000000
   6         0.00000000
   7         0.00000000
   8         0.00000000
   9         0.00000000
  10         0.00000000
  11         0.00000000
  12         0.00000000
  13         0.00000000
  14         1.00000002
  15         0.00000000
  16         0.00000000
  17         0.00000000
  18         0.00000000
  19         0.00000000
  20         0.00000000
  21         0.00000000
  22         0.00000000
  23         0.00000000
  24         0.00000000
  25         0.00000000
  26         0.00000000
  27         0.00000000
  28        -0.00012271
Sym=    11a  
Ene=     0.0000
Spin= Alpha
Occup=    0.00000
   1         0.00000000
   2         0.00000000
   3         0.00000000
   4         0.00000000
   5         0.00002555
   6         0.00000000
   7         0.00000000
   8         0.00006770
   9         0.00000000
  10         0.00000000
  11         0.00000000
  12         1.00002159
  13         0.00000000
  14         0.00000000
  15         0.00000000
  16         0.00000000
  17         0.00000000
  18         0.00000000
  19        -0.00170624
  20         0.00000000
  21         0.00000000
  22        -0.00349371
  23         0.00000000
  24         0.00000000
  25         0.00000000
  26         0.00110489
  27         0.00000000
  28         0.00000000
Sym=    12a  
Ene=     0.0000
Spin= Alpha
Occup=    0.00000
   1         0.00002526
   2         0.00044917
   3         0.00102119
   4         0.00000000
   5         0.00000000
   6         0.00071425
   7         0.00000000
   8         0.00000000
   9         0.00162383
  10         1.00034663
  11         0.00000000
  12         0.00000000
  13         0.00000000
  14         0.00000000
  15        -0.00014414
  16        -0.00359339
  17        -0.00667523
  18         0.00000000
  19         0.00000000
  20         0.00726224
  21         0.00000000
  22         0.00000000
  23         0.01264237
  24        -0.00290439
  25         0.00000000
  26         0.00000000
  27        -0.00000000
  28         0.00000000
Sym=    13a  
Ene=     0.0000
Spin= Alpha
Occup=    0.00000
   1         0.00000000
   2         0.00000000
   3         0.00000000
   4         0.00002555
   5         0.00000000
   6         0.00000000
   7         0.00006770
   8         0.00000000
   9         0.00000000
  10         0.00000000
  11         1.00002159
  12         0.00000000
  13         0.00000000
  14         0.00000000
  15         0.00000000
  16         0.00000000
  17         0.00000000
  18        -0.00170624
  19         0.00000000
  20         0.00000000
  21        -0.00349371
  22         0.00000000
  23         0.00000000
  24         0.00000000
  25         0.00110489
  26         0.00000000
  27         0.00000000
  28         0.00000000
Sym=    14a  
Ene=     0.0000
Spin= Alpha
Occup=    0.00000
   1         0.00000000
   2         0.00000000
   3         0.00000000
   4         0.00000000
   5         0.00000000
   6         0.00000000
   7         0.00000000
   8         0.00000000
   9         0.00000000
  10         0.00000000
  11         0.00000000
  12         0.00000000
  13         1.00000002
  14         0.00000000
  15        -0.00000000
  16        -0.00000000
  17        -0.00000000
  18         0.00000000
  19         0.00000000
  20         0.00000000
  21         0.00000000
  22         0.00000000
  23         0.00000000
  24        -0.00000000
  25         0.00000000
  26         0.00000000
  27        -0.00012271
  28         0.00000000
Sym=    15a  
Ene=     0.0000
Spin= Alpha
Occup=    0.00000
   1        -0.00000199
   2        -0.00003988
   3        -0.00000000
   4         0.00000000
   5         0.00000000
   6        -0.00011679
   7         0.00000000
   8         0.00000000
   9        -0.00000000
  10         0.00000000
  11         0.00000000
  12         0.00000000
  13         0.00000000
  14         0.00000000
  15         1.00000002
  16         0.00000051
  17         0.00000000
  18         0.00000000
  19         0.00000000
  20        -0.00000103
  21         0.00000000
  22         0.00000000
  23        -0.00000000
  24        -0.00000000
  25         0.00000000
  26         0.00000000
  27        -0.00000000
  28         0.00000000
Sym=    16a  
Ene=     0.0000
Spin= Alpha
Occup=    0.00000
   1        -0.00003988
   2        -0.00102382
   3        -0.00000000
   4         0.00000000
   5         0.00000000
   6        -0.00253394
   7         0.00000000
   8         0.00000000
   9        -0.00000000
  10         0.00000000
  11         0.00000000
  12         0.00000000
  13         0.00000000
  14         0.00000000
  15         0.00000050
  16         1.00001121
  17         0.00000000
  18         0.00000000
  19         0.00000000
  20        -0.00002287
  21         0.00000000
  22         0.00000000
  23        -0.00000000
  24        -0.00000000
  25         0.00000000
  26         0.00000000
  27        -0.00000000
  28         0.00000000
Sym=    17a  
Ene=     0.0000
Spin= Alpha
Occup=    0.00000
   1        -0.00080827
   2        -0.01342959
   3        -0.02281830
   4         0.00000000
   5         0.00000000
   6        -0.02074932
   7         0.00000000
   8         0.00000000
   9        -0.03587396
  10        -0.00667561
  11         0.00000000
  12         0.00000000
  13        -0.00000000
  14         0.00000000
  15         0.00007486
  16         0.00132779
  17         1.00303608
  18         0.00000000
  19         0.00000000
  20        -0.00211280
  21         0.00000000
  22         0.00000000
  23        -0.00482603
  24         0.00102127
  25         0.00000000
  26         0.00000000
  27         0.00000000
  28         0.00000000
Sym=    18a  
Ene=     0.0000
Spin= Alpha
Occup=    0.00000
   1         0.00000000
   2         0.00000000
   3         0.00000000
   4        -0.00071299
   5         0.00000000
   6         0.00000000
   7         0.00000000
   8         0.00000000
   9         0.00000000
  10         0.00000000
  11         0.00000000
  12         0.00000000
  13         0.00000000
  14         0.00000000
  15         0.00000000
  16         0.00000000
  17         0.00000000
  18         1.00000076
  19         0.00000000
  20         0.00000000
  21        -0.00000000
  22         0.00000000
  23         0.00000000
  24         0.00000000
  25         0.00000000
  26         0.00000000
  27         0.00000000
  28         0.00000000
Sym=    19a  
Ene=     0.0000
Spin= Alpha
Occup=    0.00000
   1         0.00000000
   2         0.00000000
   3         0.00000000
   4        -0.00607986
   5         0.00000000
   6         0.00000000
   7        -0.01082883
   8         0.00000000
   9         0.00000000
  10         0.00000000
  11        -0.00349371
  12         0.00000000
  13         0.00000000
  14         0.00000000
  15         0.00000000
  16         0.00000000
  17         0.00000000
  18         0.00008045
  19         0.00000000
  20         0.00000000
  21         1.00021262
  22         0.00000000
  23         0.00000000
  24         0.00000000
  25        -0.00006770
  26         0.00000000
  27         0.00000000
  28         0.00000000
Sym=    20a  
Ene=     0.0000
Spin= Alpha
Occup=    0.00000
   1         0.00000000
   2         0.00000000
   3         0.00000000
   4         0.00000000
   5        -0.00071299
   6         0.00000000
   7         0.00000000
   8         0.00000000
   9         0.00000000
  10         0.00000000
  11         0.00000000
  12         0.00000000
  13         0.00000000
  14         0.00000000
  15         0.00000000
  16         0.00000000
  17         0.00000000
  18         0.00000000
  19         1.00000076
  20         0.00000000
  21         0.00000000
  22         0.00000000
  23         0.00000000
  24         0.00000000
  25         0.00000000
  26         0.00000000
  27         0.00000000
  28         0.00000000
Sym=    21a  
Ene=     0.0000
Spin= Alpha
Occup=    0.00000
   1         0.00000000
   2         0.00000000
   3         0.00000000
   4         0.00000000
   5        -0.00607986
   6         0.00000000
   7         0.00000000
   8        -0.01082883
   9         0.00000000
  10         0.00000000
  11         0.00000000
  12        -0.00349371
  13         0.00000000
  14         0.00000000
  15         0.00000000
  16         0.00000000
  17         0.00000000
  18         0.00000000
  19         0.00008045
  20         0.00000000
  21         0.00000000
  22         1.00021262
  23         0.00000000
  24         0.00000000
  25         0.00000000
  26        -0.00006770
  27         0.00000000
  28         0.00000000
Sym=    22a  
Ene=     0.0000
Spin= Alpha
Occup=    0.00000
   1         0.00011679
   2         0.00253394
   3        -0.00000000
   4         0.00000000
   5         0.00000000
   6         0.00499182
   7         0.00000000
   8         0.00000000
   9         0.00000000
  10        -0.00000000
  11         0.00000000
  12         0.00000000
  13        -0.00000000
  14         0.00000000
  15        -0.00000103
  16        -0.00002287
  17         0.00000000
  18         0.00000000
  19         0.00000000
  20         1.00004703
  21         0.00000000
  22         0.00000000
  23        -0.00000000
  24        -0.00000000
  25         0.00000000
  26         0.00000000
  27        -0.00000000
  28         0.00000000
Sym=    23a  
Ene=     0.0000
Spin= Alpha
Occup=    0.00000
   1         0.00140320
   2         0.02450163
   3         0.03588061
   4         0.00000000
   5         0.00000000
   6         0.03730036
   7         0.00000000
   8         0.00000000
   9         0.05567915
  10         0.01264522
  11         0.00000000
  12         0.00000000
  13         0.00000000
  14         0.00000000
  15        -0.00011835
  16        -0.00210837
  17        -0.00482742
  18         0.00000000
  19         0.00000000
  20         0.00337456
  21         0.00000000
  22         0.00000000
  23         1.00769693
  24        -0.00162441
  25         0.00000000
  26         0.00000000
  27        -0.00000000
  28         0.00000000
Sym=    24a  
Ene=     0.0000
Spin= Alpha
Occup=    0.00000
   1         0.00000000
   2         0.00000000
   3         0.00000000
   4         0.00000000
   5         0.00000000
   6         0.00000000
   7         0.00000000
   8         0.00000000
   9         0.00000000
  10         0.00000000
  11         0.00000000
  12         0.00000000
  13         0.00000000
  14        -0.00012271
  15         0.00000000
  16         0.00000000
  17         0.00000000
  18         0.00000000
  19         0.00000000
  20         0.00000000
  21         0.00000000
  22         0.00000000
  23         0.00000000
  24         0.00000000
  25         0.00000000
  26         0.00000000
  27         0.00000000
  28         1.00000002
Sym=    25a  
Ene=     0.0000
Spin= Alpha
Occup=    0.00000
   1         0.00000000
   2         0.00000000
   3         0.00000000
   4         0.00000000
   5         0.00170624
   6         0.00000000
   7         0.00000000
   8         0.00349371
   9         0.00000000
  10         0.00000000
  11         0.00000000
  12         0.00110489
  13         0.00000000
  14         0.00000000
  15         0.00000000
  16         0.00000000
  17         0.00000000
  18         0.00000000
  19        -0.00002555
  20         0.00000000
  21         0.00000000
  22        -0.00006770
  23         0.00000000
  24         0.00000000
  25         0.00000000
  26         1.00002159
  27         0.00000000
  28         0.00000000
Sym=    26a  
Ene=     0.0000
Spin= Alpha
Occup=    0.00000
   1        -0.00014414
   2        -0.00359339
   3        -0.00667523
   4         0.00000000
   5         0.00000000
   6        -0.00726224
   7         0.00000000
   8         0.00000000
   9        -0.01264237
  10        -0.00290439
  11         0.00000000
  12         0.00000000
  13        -0.00000000
  14         0.00000000
  15         0.00002526
  16         0.00044917
  17         0.00102119
  18         0.00000000
  19         0.00000000
  20        -0.00071425
  21         0.00000000
  22         0.00000000
  23        -0.00162383
  24         1.00034663
  25         0.00000000
  26         0.00000000
  27         0.00000000
  28         0.00000000
Sym=    27a  
Ene=     0.0000
Spin= Alpha
Occup=    0.00000
   1         0.00000000
   2         0.00000000
   3         0.00000000
   4         0.00170624
   5         0.00000000
   6         0.00000000
   7         0.00349371
   8         0.00000000
   9         0.00000000
  10         0.00000000
  11         0.00110489
  12         0.00000000
  13         0.00000000
  14         0.00000000
  15         0.00000000
  16         0.00000000
  17         0.00000000
  18        -0.00002555
  19         0.00000000
  20         0.00000000
  21        -0.00006770
  22         0.00000000
  23         0.00000000
  24         0.00000000
  25         1.00002159
  26         0.00000000
  27         0.00000000
  28         0.00000000
Sym=    28a  
Ene=     0.0000
Spin= Alpha
Occup=    0.00000
   1        -0.00000000
   2        -0.00000000
   3        -0.00000000
   4         0.00000000
   5         0.00000000
   6        -0.00000000
   7         0.00000000
   8         0.00000000
   9        -0.00000000
  10        -0.00000000
  11         0.00000000
  12         0.00000000
  13        -0.00012271
  14         0.00000000
  15         0.00000000
  16         0.00000000
  17         0.00000000
  18         0.00000000
  19         0.00000000
  20        -0.00000000
  21         0.00000000
  22         0.00000000
  23        -0.00000000
  24         0.00000000
  25         0.00000000
  26         0.00000000
  27         1.00000002
  28         0.00000000
