[Molden Format]
[N_Atoms]
                     2
[Atoms] (AU)
N1          1      7           0.00000000      0.00000000      0.00000000
N2          2      7           0.00000000      0.00000000      7.74787712
[5D]
[Charge] (Mulliken)
  0.000000000000000E+000
  0.000000000000000E+000
[GTO] (AU)
   1
   s  14
  7.476171500E+04  1.182599996E-04
  1.112365400E+04  5.172899983E-04
  2.512685700E+03  2.266659992E-03
  7.037772900E+02  9.145289970E-03
  2.254787900E+02  3.239342989E-02
  7.961581000E+01  9.770792967E-02
  3.023728300E+01  2.317036792E-01
  1.226362200E+01  3.768898887E-01
  5.265086000E+00  3.177420689E-01
  2.333471000E+00  8.211308973E-02
  9.018560000E-01  3.312089989E-03
  3.583360000E-01  3.720819988E-03
  1.410930000E-01  3.165419989E-03
  4.938300000E-02  4.595799985E-04
   s  14
  7.476171500E+04 -2.707000010E-05
  1.112365400E+04 -1.183700004E-04
  2.512685700E+03 -5.203800020E-04
  7.037772900E+02 -2.102930008E-03
  2.254787900E+02 -7.568200028E-03
  7.961581000E+01 -2.346767009E-02
  3.023728300E+01 -6.042901023E-02
  1.226362200E+01 -1.170549104E-01
  5.265086000E+00 -1.555321506E-01
  2.333471000E+00 -2.468935009E-02
  9.018560000E-01  3.625054514E-01
  3.583360000E-01  5.550845021E-01
  1.410930000E-01  2.148376908E-01
  4.938300000E-02  8.983850034E-03
   s  14
  7.476171500E+04  1.875999998E-05
  1.112365400E+04  8.117999992E-05
  2.512685700E+03  3.658999997E-04
  7.037772900E+02  1.443039999E-03
  2.254787900E+02  5.531839995E-03
  7.961581000E+01  1.724358998E-02
  3.023728300E+01  5.279547995E-02
  1.226362200E+01  1.152881299E-01
  5.265086000E+00  2.352593898E-01
  2.333471000E+00 -4.896386995E-02
  9.018560000E-01 -1.023217739E+00
  3.583360000E-01 -1.481586599E-01
  1.410930000E-01  1.021557539E+00
  4.938300000E-02  1.724018298E-01
   p   9
  1.266665700E+02  1.233630000E-03
  2.983738900E+01  9.493409996E-03
  9.394038000E+00  4.293961998E-02
  3.405104000E+00  1.362925399E-01
  1.350000000E+00  2.921362499E-01
  5.576960000E-01  3.887887598E-01
  2.324490000E-01  2.946801399E-01
  9.426400000E-02  8.012875997E-02
  3.299200000E-02  5.405199998E-04
   p   9
  1.266665700E+02 -1.466229998E-03
  2.983738900E+01 -1.182147998E-02
  9.394038000E+00 -4.983125993E-02
  3.405104000E+00 -1.730904198E-01
  1.350000000E+00 -4.732370794E-01
  5.576960000E-01 -2.055113197E-01
  2.324490000E-01  5.910379792E-01
  9.426400000E-02  4.511796794E-01
  3.299200000E-02  1.367471998E-02
   d   4
  2.750000000E+00  1.473016505E-01
  9.625000000E-01  5.502182618E-01
  3.368750000E-01  4.452560414E-01
  1.179060000E-01  4.942869016E-02
 
   2
   s  14
  7.476171500E+04  1.182599996E-04
  1.112365400E+04  5.172899983E-04
  2.512685700E+03  2.266659992E-03
  7.037772900E+02  9.145289970E-03
  2.254787900E+02  3.239342989E-02
  7.961581000E+01  9.770792967E-02
  3.023728300E+01  2.317036792E-01
  1.226362200E+01  3.768898887E-01
  5.265086000E+00  3.177420689E-01
  2.333471000E+00  8.211308973E-02
  9.018560000E-01  3.312089989E-03
  3.583360000E-01  3.720819988E-03
  1.410930000E-01  3.165419989E-03
  4.938300000E-02  4.595799985E-04
   s  14
  7.476171500E+04 -2.707000010E-05
  1.112365400E+04 -1.183700004E-04
  2.512685700E+03 -5.203800020E-04
  7.037772900E+02 -2.102930008E-03
  2.254787900E+02 -7.568200028E-03
  7.961581000E+01 -2.346767009E-02
  3.023728300E+01 -6.042901023E-02
  1.226362200E+01 -1.170549104E-01
  5.265086000E+00 -1.555321506E-01
  2.333471000E+00 -2.468935009E-02
  9.018560000E-01  3.625054514E-01
  3.583360000E-01  5.550845021E-01
  1.410930000E-01  2.148376908E-01
  4.938300000E-02  8.983850034E-03
   s  14
  7.476171500E+04  1.875999998E-05
  1.112365400E+04  8.117999992E-05
  2.512685700E+03  3.658999997E-04
  7.037772900E+02  1.443039999E-03
  2.254787900E+02  5.531839995E-03
  7.961581000E+01  1.724358998E-02
  3.023728300E+01  5.279547995E-02
  1.226362200E+01  1.152881299E-01
  5.265086000E+00  2.352593898E-01
  2.333471000E+00 -4.896386995E-02
  9.018560000E-01 -1.023217739E+00
  3.583360000E-01 -1.481586599E-01
  1.410930000E-01  1.021557539E+00
  4.938300000E-02  1.724018298E-01
   p   9
  1.266665700E+02  1.233630000E-03
  2.983738900E+01  9.493409996E-03
  9.394038000E+00  4.293961998E-02
  3.405104000E+00  1.362925399E-01
  1.350000000E+00  2.921362499E-01
  5.576960000E-01  3.887887598E-01
  2.324490000E-01  2.946801399E-01
  9.426400000E-02  8.012875997E-02
  3.299200000E-02  5.405199998E-04
   p   9
  1.266665700E+02 -1.466229998E-03
  2.983738900E+01 -1.182147998E-02
  9.394038000E+00 -4.983125993E-02
  3.405104000E+00 -1.730904198E-01
  1.350000000E+00 -4.732370794E-01
  5.576960000E-01 -2.055113197E-01
  2.324490000E-01  5.910379792E-01
  9.426400000E-02  4.511796794E-01
  3.299200000E-02  1.367471998E-02
   d   4
  2.750000000E+00  1.473016505E-01
  9.625000000E-01  5.502182618E-01
  3.368750000E-01  4.452560414E-01
  1.179060000E-01  4.942869016E-02
 
[MO]
Sym=     1a  
Ene=   -15.6340
Spin= Alpha
Occup=    2.00000
   1         0.70710537
   2         0.00000363
   3        -0.00000000
   4        -0.00000000
   5        -0.00000000
   6         0.00000626
   7        -0.00000000
   8         0.00000000
   9         0.00000000
  10        -0.00000000
  11        -0.00000000
  12         0.00000000
  13        -0.00000000
  14        -0.00000000
  15         0.70710537
  16         0.00000363
  17        -0.00000000
  18        -0.00000000
  19         0.00000000
  20        -0.00000626
  21         0.00000000
  22         0.00000000
  23         0.00000000
  24         0.00000000
  25         0.00000000
  26         0.00000000
  27         0.00000000
  28         0.00000000
Sym=     2a  
Ene=   -15.6340
Spin= Alpha
Occup=    2.00000
   1        -0.70710819
   2         0.00000363
   3        -0.00000000
   4         0.00000000
   5        -0.00000000
   6         0.00000625
   7         0.00000000
   8        -0.00000000
   9        -0.00000000
  10         0.00000000
  11         0.00000000
  12        -0.00000000
  13        -0.00000000
  14         0.00000000
  15         0.70710819
  16        -0.00000363
  17         0.00000000
  18         0.00000000
  19        -0.00000000
  20         0.00000625
  21        -0.00000000
  22        -0.00000000
  23         0.00000000
  24         0.00000000
  25        -0.00000000
  26         0.00000000
  27         0.00000000
  28         0.00000000
Sym=     3a  
Ene=    -0.9474
Spin= Alpha
Occup=    2.00000
   1        -0.00006134
   2         0.70633455
   3        -0.00000000
   4        -0.00000000
   5        -0.00000000
   6         0.00550625
   7         0.00000000
   8        -0.00000000
   9         0.00000000
  10         0.00000000
  11        -0.00000000
  12        -0.00000000
  13        -0.00000000
  14         0.00000000
  15        -0.00006134
  16         0.70633455
  17        -0.00000000
  18         0.00000000
  19         0.00000000
  20        -0.00550625
  21        -0.00000000
  22         0.00000000
  23        -0.00000000
  24        -0.00000000
  25        -0.00000000
  26        -0.00000000
  27         0.00000000
  28         0.00000000
Sym=     4a  
Ene=    -0.9435
Spin= Alpha
Occup=    2.00000
   1        -0.00005872
   2        -0.70778381
   3        -0.00000000
   4         0.00000000
   5        -0.00000000
   6         0.00540793
   7        -0.00000000
   8        -0.00000000
   9         0.00000000
  10         0.00000000
  11         0.00000000
  12        -0.00000000
  13         0.00000000
  14        -0.00000000
  15         0.00005872
  16         0.70778381
  17        -0.00000000
  18         0.00000000
  19        -0.00000000
  20         0.00540793
  21        -0.00000000
  22        -0.00000000
  23        -0.00000000
  24         0.00000000
  25         0.00000000
  26         0.00000000
  27         0.00000000
  28        -0.00000000
Sym=     5a  
Ene=    -0.5764
Spin= Alpha
Occup=    1.00000
   1         0.00016986
   2         0.00908601
   3         0.00000000
   4        -0.00000000
   5         0.00000000
   6        -0.70359098
   7        -0.00000000
   8         0.00000000
   9        -0.00000000
  10        -0.00000000
  11         0.00000000
  12        -0.00000000
  13         0.00000000
  14        -0.00000000
  15         0.00016986
  16         0.00908601
  17        -0.00000000
  18        -0.00000000
  19         0.00000000
  20         0.70359098
  21         0.00000000
  22         0.00000000
  23         0.00000000
  24         0.00000000
  25        -0.00000000
  26        -0.00000000
  27        -0.00000000
  28        -0.00000000
Sym=     6a  
Ene=    -0.5715
Spin= Alpha
Occup=    1.00000
   1         0.00000000
   2         0.00000000
   3        -0.00000000
   4         0.65765964
   5         0.25840244
   6         0.00000000
   7         0.00000000
   8         0.00000000
   9        -0.00000000
  10        -0.00000000
  11        -0.00000000
  12         0.00000000
  13         0.00000000
  14         0.00000000
  15        -0.00000000
  16        -0.00000000
  17        -0.00000000
  18         0.65765964
  19         0.25840244
  20         0.00000000
  21         0.00000000
  22         0.00000000
  23        -0.00000000
  24        -0.00000000
  25         0.00000000
  26        -0.00000000
  27         0.00000000
  28        -0.00000000
Sym=     7a  
Ene=    -0.5715
Spin= Alpha
Occup=    1.00000
   1         0.00000000
   2        -0.00000000
   3        -0.00000000
   4        -0.25840244
   5         0.65765964
   6         0.00000000
   7         0.00000000
   8        -0.00000000
   9         0.00000000
  10        -0.00000000
  11         0.00000000
  12         0.00000000
  13        -0.00000000
  14        -0.00000000
  15        -0.00000000
  16         0.00000000
  17         0.00000000
  18        -0.25840244
  19         0.65765964
  20         0.00000000
  21        -0.00000000
  22         0.00000000
  23         0.00000000
  24         0.00000000
  25        -0.00000000
  26         0.00000000
  27        -0.00000000
  28        -0.00000000
Sym=     8a  
Ene=    -0.5699
Spin= Alpha
Occup=    1.00000
   1        -0.00000000
   2        -0.00000000
   3        -0.00000000
   4         0.32059803
   5        -0.63081765
   6        -0.00000000
   7         0.00000000
   8         0.00000000
   9         0.00000000
  10        -0.00000000
  11         0.00000000
  12        -0.00000000
  13         0.00000000
  14        -0.00000000
  15         0.00000000
  16         0.00000000
  17         0.00000000
  18        -0.32059803
  19         0.63081765
  20        -0.00000000
  21        -0.00000000
  22        -0.00000000
  23        -0.00000000
  24         0.00000000
  25         0.00000000
  26        -0.00000000
  27         0.00000000
  28         0.00000000
Sym=     9a  
Ene=    -0.5699
Spin= Alpha
Occup=    1.00000
   1        -0.00000000
   2         0.00000000
   3        -0.00000000
   4        -0.63081765
   5        -0.32059803
   6        -0.00000000
   7        -0.00000000
   8        -0.00000000
   9         0.00000000
  10        -0.00000000
  11        -0.00000000
  12        -0.00000000
  13        -0.00000000
  14        -0.00000000
  15         0.00000000
  16        -0.00000000
  17        -0.00000000
  18         0.63081765
  19         0.32059803
  20        -0.00000000
  21         0.00000000
  22         0.00000000
  23        -0.00000000
  24         0.00000000
  25        -0.00000000
  26        -0.00000000
  27        -0.00000000
  28        -0.00000000
Sym=    10a  
Ene=    -0.5650
Spin= Alpha
Occup=    1.00000
   1         0.00017294
   2         0.00899487
   3         0.00000000
   4         0.00000000
   5        -0.00000000
   6         0.71065151
   7        -0.00000000
   8        -0.00000000
   9        -0.00000000
  10        -0.00000000
  11        -0.00000000
  12         0.00000000
  13         0.00000000
  14         0.00000000
  15        -0.00017294
  16        -0.00899487
  17         0.00000000
  18         0.00000000
  19        -0.00000000
  20         0.71065151
  21        -0.00000000
  22         0.00000000
  23         0.00000000
  24        -0.00000000
  25         0.00000000
  26         0.00000000
  27         0.00000000
  28        -0.00000000
Sym=    11a  
Ene=     5.2072
Spin= Alpha
Occup=    0.00000
   1         0.00101032
   2         0.01758815
   3        -0.14661453
   4        -0.00000000
   5        -0.00000000
   6         0.02685838
   7         0.00000000
   8        -0.00000000
   9        -0.64109369
  10        -0.08120728
  11         0.00000000
  12        -0.00000000
  13         0.00000000
  14         0.00000000
  15         0.00101032
  16         0.01758815
  17        -0.14661453
  18        -0.00000000
  19         0.00000000
  20        -0.02685838
  21         0.00000000
  22         0.00000000
  23         0.64109369
  24        -0.08120728
  25        -0.00000000
  26        -0.00000000
  27        -0.00000000
  28         0.00000000
Sym=    12a  
Ene=     5.3064
Spin= Alpha
Occup=    0.00000
   1        -0.00000000
   2        -0.00000000
   3         0.00000000
   4         0.00110639
   5        -0.00415472
   6         0.00000000
   7        -0.17973887
   8         0.67495548
   9        -0.00000000
  10         0.00000000
  11        -0.00906000
  12         0.03402212
  13         0.00000000
  14         0.00000000
  15        -0.00000000
  16         0.00000000
  17        -0.00000000
  18         0.00110639
  19        -0.00415472
  20        -0.00000000
  21        -0.17973887
  22         0.67495548
  23         0.00000000
  24        -0.00000000
  25         0.00906000
  26        -0.03402212
  27        -0.00000000
  28         0.00000000
Sym=    13a  
Ene=     5.3064
Spin= Alpha
Occup=    0.00000
   1        -0.00000000
   2        -0.00000000
   3        -0.00000000
   4        -0.00415472
   5        -0.00110639
   6         0.00000000
   7         0.67495548
   8         0.17973887
   9         0.00000000
  10         0.00000000
  11         0.03402212
  12         0.00906000
  13        -0.00000000
  14        -0.00000000
  15        -0.00000000
  16        -0.00000000
  17         0.00000000
  18        -0.00415472
  19        -0.00110639
  20         0.00000000
  21         0.67495548
  22         0.17973887
  23         0.00000000
  24         0.00000000
  25        -0.03402212
  26        -0.00906000
  27        -0.00000000
  28         0.00000000
Sym=    14a  
Ene=     5.3698
Spin= Alpha
Occup=    0.00000
   1         0.00000000
   2        -0.00000000
   3        -0.00000000
   4         0.00254238
   5        -0.00342076
   6        -0.00000000
   7         0.42535456
   8        -0.57231182
   9         0.00000000
  10         0.00000000
  11        -0.02737427
  12         0.03683191
  13        -0.00000000
  14         0.00000000
  15         0.00000000
  16        -0.00000000
  17         0.00000000
  18        -0.00254238
  19         0.00342076
  20         0.00000000
  21        -0.42535456
  22         0.57231182
  23         0.00000000
  24        -0.00000000
  25        -0.02737427
  26         0.03683191
  27        -0.00000000
  28        -0.00000000
Sym=    15a  
Ene=     5.3698
Spin= Alpha
Occup=    0.00000
   1        -0.00000000
   2         0.00000000
   3         0.00000000
   4        -0.00342076
   5        -0.00254238
   6         0.00000000
   7        -0.57231182
   8        -0.42535456
   9         0.00000000
  10         0.00000000
  11         0.03683191
  12         0.02737427
  13        -0.00000000
  14         0.00000000
  15        -0.00000000
  16        -0.00000000
  17         0.00000000
  18         0.00342076
  19         0.00254238
  20         0.00000000
  21         0.57231182
  22         0.42535456
  23         0.00000000
  24         0.00000000
  25         0.03683191
  26         0.02737427
  27         0.00000000
  28         0.00000000
Sym=    16a  
Ene=     5.4345
Spin= Alpha
Occup=    0.00000
   1         0.00069221
   2         0.01212406
   3        -0.25745262
   4         0.00000000
   5        -0.00000000
   6         0.01816466
   7        -0.00000000
   8         0.00000000
   9         0.65866994
  10        -0.15159826
  11         0.00000000
  12        -0.00000000
  13        -0.00000000
  14         0.00000000
  15        -0.00069221
  16        -0.01212406
  17         0.25745262
  18         0.00000000
  19        -0.00000000
  20         0.01816466
  21        -0.00000000
  22        -0.00000000
  23         0.65866994
  24         0.15159826
  25        -0.00000000
  26        -0.00000000
  27        -0.00000000
  28         0.00000000
Sym=    17a  
Ene=     5.5580
Spin= Alpha
Occup=    0.00000
   1        -0.00022642
   2        -0.00389562
   3         0.58695339
   4         0.00000000
   5         0.00000000
   6        -0.00667067
   7         0.00000000
   8         0.00000000
   9        -0.20650566
  10         0.32803440
  11        -0.00000000
  12        -0.00000000
  13        -0.00000000
  14        -0.00000000
  15        -0.00022642
  16        -0.00389562
  17         0.58695339
  18         0.00000000
  19         0.00000000
  20         0.00667067
  21        -0.00000000
  22        -0.00000000
  23         0.20650566
  24         0.32803440
  25        -0.00000000
  26         0.00000000
  27         0.00000000
  28         0.00000000
Sym=    18a  
Ene=     5.5854
Spin= Alpha
Occup=    0.00000
   1        -0.00000000
   2         0.00000000
   3        -0.00000000
   4         0.00096073
   5         0.00000644
   6         0.00000000
   7         0.03968603
   8         0.00026611
   9         0.00000000
  10         0.00000000
  11        -0.70545105
  12        -0.00473032
  13         0.00000000
  14        -0.00000000
  15         0.00000000
  16         0.00000000
  17        -0.00000000
  18         0.00096073
  19         0.00000644
  20        -0.00000000
  21         0.03968603
  22         0.00026611
  23         0.00000000
  24         0.00000000
  25         0.70545105
  26         0.00473032
  27         0.00000000
  28         0.00000000
Sym=    19a  
Ene=     5.5854
Spin= Alpha
Occup=    0.00000
   1         0.00000000
   2         0.00000000
   3         0.00000000
   4        -0.00000644
   5         0.00096073
   6        -0.00000000
   7        -0.00026611
   8         0.03968603
   9         0.00000000
  10        -0.00000000
  11         0.00473032
  12        -0.70545105
  13        -0.00000000
  14         0.00000000
  15        -0.00000000
  16        -0.00000000
  17         0.00000000
  18        -0.00000644
  19         0.00096073
  20        -0.00000000
  21        -0.00026611
  22         0.03968603
  23        -0.00000000
  24        -0.00000000
  25        -0.00473032
  26         0.70545105
  27        -0.00000000
  28         0.00000000
Sym=    20a  
Ene=     5.5900
Spin= Alpha
Occup=    0.00000
   1         0.00000000
   2         0.00000000
   3        -0.00000000
   4        -0.00000000
   5         0.00000000
   6         0.00000000
   7        -0.00000000
   8         0.00000000
   9         0.00000000
  10         0.00000000
  11         0.00000000
  12        -0.00000000
  13         0.70702003
  14        -0.00000000
  15         0.00000000
  16         0.00000000
  17        -0.00000000
  18         0.00000000
  19        -0.00000000
  20        -0.00000000
  21        -0.00000000
  22         0.00000000
  23        -0.00000000
  24         0.00000000
  25        -0.00000000
  26         0.00000000
  27         0.70702003
  28        -0.00000000
Sym=    21a  
Ene=     5.5900
Spin= Alpha
Occup=    0.00000
   1         0.00000000
   2         0.00000000
   3        -0.00000000
   4        -0.00000000
   5        -0.00000000
   6         0.00000000
   7         0.00000000
   8         0.00000000
   9         0.00000000
  10         0.00000000
  11        -0.00000000
  12        -0.00000000
  13         0.00000000
  14         0.70702003
  15         0.00000000
  16         0.00000000
  17        -0.00000000
  18        -0.00000000
  19         0.00000000
  20        -0.00000000
  21         0.00000000
  22        -0.00000000
  23        -0.00000000
  24         0.00000000
  25         0.00000000
  26        -0.00000000
  27         0.00000000
  28         0.70702003
Sym=    22a  
Ene=     5.5900
Spin= Alpha
Occup=    0.00000
   1         0.00017151
   2         0.00209279
   3        -0.33897120
   4         0.00000000
   5         0.00000000
   6         0.00216969
   7        -0.00000000
   8         0.00000000
   9         0.00811799
  10         0.61912926
  11         0.00000000
  12        -0.00000000
  13        -0.00000000
  14        -0.00000000
  15         0.00017151
  16         0.00209279
  17        -0.33897120
  18        -0.00000000
  19         0.00000000
  20        -0.00216969
  21        -0.00000000
  22         0.00000000
  23        -0.00811799
  24         0.61912926
  25        -0.00000000
  26         0.00000000
  27        -0.00000000
  28        -0.00000000
Sym=    23a  
Ene=     5.5914
Spin= Alpha
Occup=    0.00000
   1         0.00000000
   2         0.00000000
   3        -0.00000000
   4         0.00000000
   5        -0.00000000
   6         0.00000000
   7         0.00000000
   8         0.00000000
   9        -0.00000000
  10         0.00000000
  11         0.00000000
  12        -0.00000000
  13        -0.70719357
  14        -0.00000000
  15         0.00000000
  16         0.00000000
  17        -0.00000000
  18        -0.00000000
  19         0.00000000
  20        -0.00000000
  21        -0.00000000
  22         0.00000000
  23        -0.00000000
  24         0.00000000
  25         0.00000000
  26         0.00000000
  27         0.70719357
  28         0.00000000
Sym=    24a  
Ene=     5.5914
Spin= Alpha
Occup=    0.00000
   1        -0.00000000
   2         0.00000000
   3        -0.00000000
   4         0.00000000
   5         0.00000000
   6         0.00000000
   7        -0.00000000
   8        -0.00000000
   9         0.00000000
  10         0.00000000
  11         0.00000000
  12         0.00000000
  13         0.00000000
  14        -0.70719357
  15        -0.00000000
  16         0.00000000
  17        -0.00000000
  18         0.00000000
  19        -0.00000000
  20         0.00000000
  21        -0.00000000
  22         0.00000000
  23        -0.00000000
  24         0.00000000
  25        -0.00000000
  26         0.00000000
  27        -0.00000000
  28         0.70719357
Sym=    25a  
Ene=     5.5972
Spin= Alpha
Occup=    0.00000
   1         0.00007699
   2         0.00045409
   3         0.28103495
   4         0.00000000
   5        -0.00000000
   6        -0.00038490
   7         0.00000000
   8        -0.00000000
   9        -0.04037847
  10        -0.64841915
  11         0.00000000
  12        -0.00000000
  13         0.00000000
  14         0.00000000
  15        -0.00007699
  16        -0.00045409
  17        -0.28103495
  18        -0.00000000
  19         0.00000000
  20        -0.00038490
  21        -0.00000000
  22         0.00000000
  23        -0.04037847
  24         0.64841915
  25         0.00000000
  26        -0.00000000
  27        -0.00000000
  28         0.00000000
Sym=    26a  
Ene=     5.5981
Spin= Alpha
Occup=    0.00000
   1        -0.00000000
   2         0.00000000
   3         0.00000000
   4         0.00145745
   5         0.00042995
   6        -0.00000000
   7         0.04929448
   8         0.01454205
   9        -0.00000000
  10        -0.00000000
  11         0.67755110
  12         0.19988004
  13         0.00000000
  14         0.00000000
  15         0.00000000
  16        -0.00000000
  17        -0.00000000
  18        -0.00145745
  19        -0.00042995
  20         0.00000000
  21        -0.04929448
  22        -0.01454205
  23        -0.00000000
  24         0.00000000
  25         0.67755110
  26         0.19988004
  27        -0.00000000
  28         0.00000000
Sym=    27a  
Ene=     5.5981
Spin= Alpha
Occup=    0.00000
   1         0.00000000
   2         0.00000000
   3         0.00000000
   4        -0.00042995
   5         0.00145745
   6        -0.00000000
   7        -0.01454205
   8         0.04929448
   9        -0.00000000
  10        -0.00000000
  11        -0.19988004
  12         0.67755110
  13        -0.00000000
  14         0.00000000
  15        -0.00000000
  16        -0.00000000
  17        -0.00000000
  18         0.00042995
  19        -0.00145745
  20        -0.00000000
  21         0.01454205
  22        -0.04929448
  23        -0.00000000
  24         0.00000000
  25        -0.19988004
  26         0.67755110
  27        -0.00000000
  28        -0.00000000
Sym=    28a  
Ene=     5.7756
Spin= Alpha
Occup=    0.00000
   1         0.00103769
   2         0.01799745
   3         0.61788697
   4        -0.00000000
   5        -0.00000000
   6         0.02811178
   7         0.00000000
   8         0.00000000
   9         0.36171514
  10         0.24486385
  11        -0.00000000
  12         0.00000000
  13         0.00000000
  14         0.00000000
  15        -0.00103769
  16        -0.01799745
  17        -0.61788697
  18        -0.00000000
  19         0.00000000
  20         0.02811178
  21        -0.00000000
  22        -0.00000000
  23         0.36171514
  24        -0.24486385
  25        -0.00000000
  26         0.00000000
  27        -0.00000000
  28         0.00000000
