   This run of MOLCAS is using the pymolcas driver

                             OPE
                             OPE          NMOL  CASOP  ENMOLC A   SO
                 OPE        NMOLC        AS  OP EN  MO LC     AS  OP
                OPENM       OL CA        SO  PE NM  OL CA     SOP EN
                OP EN      MO   LC       AS  OP ENMOL  CASO   PENMOL
                OP  EN     MO   LC       AS  OP EN     MO     LC ASO
               OP   E  NMOL  C  AS       OP  EN MO     LC     AS  OP
               OP  E   NMO   LC AS        OPEN  MO     LCASOP EN   M
               O  PEN   MO  LCA  SO
            OPE   NMO   L   CAS    OP
        OPENMOL  CASOP     ENMOL   CASOPE
     OPENMOLCA   SOPENMOLCASOPEN   MOLCASOPE
    OPENMOLCAS   OP           EN   MOL    CAS
    OPENMOLCAS       OP  ENM        O     LCA
    OPENMOLCAS    OPEN  MOLCASO     P  E  NMO
    OPENMOLCAS     OP               E  N  MOL
    OPENMOLCA   SO           PENM   O  L  CAS    OPEN    MO    LCAS
    OPENMOLCA   SOP           ENM   O  L  CAS   OP  EN  MOLC  AS   O
    OPENMOLCA   SOPE           NM      O  LCA   S      OP  EN MO
    OPENMOLC                AS         O  PEN   M      OL  CA  SOPE
    OPENMO        LCASOPE  NMOL        C  ASO   P      ENMOLC     AS
    OPE     NMO      LCA  SO     P     E   NM   OL  CA SO  PE N   MO
          OPENMOLCA            SOPE   NMO        LCAS  O    P  ENMO
     OPENMOLCASOPENMOLCASOPENMOLCASOPENMOLCA
        OPENMOLCASOPENMOLCASOPENMOLCASOPE
            OPENMOLCASOPENMOLCASOPENM
               OPENMOLCASOPENMOLCA        version: 25.10
                   OPENMOLCASO
                       OPE                tag: 146-g88ca4690c-dirty

 OpenMolcas is free software; you can redistribute it and/or modify it
 under the terms of the GNU Lesser General Public License version 2.1.
 OpenMolcas is distributed in the hope that it will be useful, but it
 is provided "as is" and without any express or implied warranties.
 For more details see the full text of the license in the file
 LICENSE or in <http://www.gnu.org/licenses/>.

                 Copyright (C) The OpenMolcas Authors
           For the author list and the recommended citation,
                   consult the file CONTRIBUTORS.md

           *************************************************
           * pymolcas version py2.29                       *
           *   build 8b43963bb28dc05deebd3a9f57599977      *
           *   (after the EMIL interpreter by V. Veryazov) *
           *************************************************

configuration info
------------------
Host name: UG-DDZGX84 (Linux)
C Compiler ID: IntelLLVM
C flags: -std=gnu99 -qopenmp
Fortran Compiler ID: Intel
Fortran flags: -fpp -i8 -heap-arrays -qopenmp
Definitions: _MOLCAS_;_I8_;_LINUX_
Parallel: OFF (GA=OFF)


   ---------------------------------------------------------------------------------------------
  |
  |           Project: n2_1_scf
  |    Submitted from: /home/joaschee/autoCAS4HE/tests/autocas/external_scf/N2_test/n2_1_workdir
  |      Scratch area: /home/joaschee/molcas_workdir/n2_1_scf
  |   Save outputs to: /home/joaschee/autoCAS4HE/tests/autocas/external_scf/N2_test/n2_1_workdir
  |            Molcas: /home/joaschee/OpenMolcas/build
  |
  | Scratch area is NOT empty
  |
  |    MOLCAS_DRIVER = /home/joaschee/OpenMolcas/build/pymolcas
  |    MOLCAS_NPROCS = 1
  |    MOLCAS_SOURCE = /home/joaschee/OpenMolcas
  | MOLCAS_STRUCTURE = 0
  |
   ---------------------------------------------------------------------------------------------

++ ---------   Input file   ---------

&GATEWAY
  Coord = n2_1.xyz
  Basis = ANO-RCC-VDZP
  Group = NoSym

&SEWARD
  Cholesky

&SCF
  Charge = 0
  Spin = 1

-- ----------------------------------

*** symbolic link created: INPORB -> n2_1_scf.ScfOrb
--- Start Module: gateway at Mon Jan 26 11:44:04 2026 ---
 
()()()()()()()()()()()()()()()()()()()()()()()()()()()()()()()()()()()()()()()()()()()()()()()()()()

                                              &GATEWAY

                                   only a single process is used
                       available to each process: 2.0 GB of memory, 1 thread
                                             pid: 23856
()()()()()()()()()()()()()()()()()()()()()()()()()()()()()()()()()()()()()()()()()()()()()()()()()()
 
 
++    Symmetry information:
      ---------------------
 
                    Character Table for C1 
 
                             E  
                    a        1  x, y, xy, Rz, z, xz, Ry, yz, Rx, I
--
 
 
++    Basis set information:
      ----------------------
 
 
      Basis set label: N.ANO-RCC...3S2P1D.
 
      Electronic valence basis set:
      ------------------
      Associated Effective Charge   7.000000 au
      Associated Actual Charge      7.000000 au
      Nuclear Model: Point charge
 
      Shell  nPrim  nBasis  Cartesian Spherical Contaminant
         s      14       3        X                  
         p       9       2        X                  
         d       4       1                 X         
--
 
 
++    Molecular structure info:
      -------------------------
 
                    ************************************************ 
                    **** Cartesian Coordinates / bohr, angstrom **** 
                    ************************************************ 
 
     Center  Label                x              y              z                     x              y              z
        1      N1               0.000000       0.000000       0.000000              0.000000       0.000000       0.000000
        2      N2               0.000000       0.000000       7.747877              0.000000       0.000000       4.100000
--
 
 
            Nuclear Potential Energy              6.32431300 au
 
--- Stop Module: gateway at Mon Jan 26 11:44:04 2026 /rc=_RC_ALL_IS_WELL_ ---
*** files: xmldump
    saved to directory /home/joaschee/autoCAS4HE/tests/autocas/external_scf/N2_test/n2_1_workdir

*** symbolic link created: INPORB -> n2_1_scf.ScfOrb
--- Start Module: seward at Mon Jan 26 11:44:04 2026 ---
 
()()()()()()()()()()()()()()()()()()()()()()()()()()()()()()()()()()()()()()()()()()()()()()()()()()

                                              &SEWARD

                                   only a single process is used
                       available to each process: 2.0 GB of memory, 1 thread
                                             pid: 23859
()()()()()()()()()()()()()()()()()()()()()()()()()()()()()()()()()()()()()()()()()()()()()()()()()()
 
               SEWARD will generate:
                  Multipole Moment integrals up to order  2
                  Kinetic Energy integrals
                  Nuclear Attraction integrals (point charge)
                  One-Electron Hamiltonian integrals
                  Velocity integrals
                  Relativistic Douglas-Kroll-Hess integrals:
                    - Parametrization         : EXP
                    - DKH order of Hamiltonian: 2
                    - DKH order of Properties : 0
                         - multipole moment operators
                         - electric potential operators
                         - contact operators
                  Orbital angular momentum around (  0.0000   0.0000   3.8739 )
                  Velocity quadrupole around (  0.0000   0.0000   3.8739 )
                  Atomic mean-field integrals
                  Cholesky decomposed two-electron repulsion integrals
                   - CD Threshold:   1.00E-04
 
                   Integrals are discarded if absolute value <: 1.00E-40
                   Integral cutoff threshold is set to       <: 1.00E-40
 
            Nuclear Potential Energy              6.32431300 au
 
 
      Basis set specifications :
      Symmetry species         a  
      Basis functions           28
 
 
      Input file to MOLDEN was generated!
 
--- Stop Module: seward at Mon Jan 26 11:44:05 2026 /rc=_RC_ALL_IS_WELL_ ---
*** files: n2_1_scf.GssOrb n2_1_scf.guessorb.h5 n2_1_scf.guessorb.molden xmldump
    saved to directory /home/joaschee/autoCAS4HE/tests/autocas/external_scf/N2_test/n2_1_workdir

*** symbolic link created: INPORB -> n2_1_scf.ScfOrb
--- Start Module: scf at Mon Jan 26 11:44:05 2026 ---
 
()()()()()()()()()()()()()()()()()()()()()()()()()()()()()()()()()()()()()()()()()()()()()()()()()()

                                                &SCF

                                   only a single process is used
                       available to each process: 2.0 GB of memory, 1 thread
                                             pid: 23868
()()()()()()()()()()()()()()()()()()()()()()()()()()()()()()()()()()()()()()()()()()()()()()()()()()
 
++    Input section:
      --------------
 
      Header of the integral files:
      
       Integrals generated by Gateway/Seward, Mon Jan 26 11:44:04 2026
 
 
      Cartesian coordinates in angstrom:
      -----------------------------------------------------
      No.  Label        X            Y            Z        
      -----------------------------------------------------
       1   N1         0.00000000   0.00000000   0.00000000
       2   N2         0.00000000   0.00000000   4.10000000
      -----------------------------------------------------
      Nuclear repulsion energy =    6.32431300
--
 
++    Orbital specifications:
      -----------------------
 
      Symmetry species               1
                                     a
      Frozen orbitals                0
      Occupied orbitals              7
      Secondary orbitals            21
      Deleted orbitals               0
      Total number of orbitals      28
      Number of basis functions     28
--
 
      Molecular charge                           0.000
 
++    Optimization specifications:
      ----------------------------
 
      SCF Algorithm: LK-Cholesky
      LK screening threshold:                     4.50E-02
      Local-Exchange (LK) algorithm.
       - the density matrix is decomposed
      The actual AO density is used
      Number of density matrices in core                 5
      Maximum number of NDDO SCF iterations            400
      Maximum number of HF SCF iterations              400
      Threshold for SCF energy change             1.00E-09
      Threshold for density matrix                1.00E-04
      Threshold for Fock matrix                   1.50E-04
      Threshold for linear dependence             1.00E-09
      Threshold at which DIIS is turned on        1.50E-01
      Maximum depth in the DIIS procedure                5
      Maximum depth in the BFGS Hessian update          30
      Threshold at which QNR/C2DIIS is turned on  7.50E-02
      Threshold for Norm(delta) (QNR/C2DIIS)      1.00E-03
      All orbitals punched on: SCFORB
--
 
      Input vectors read from INPORB
      Orbital file label: * SCF orbitals
 
 
++ Convergence information
                                   SCF        iterations: Energy and convergence statistics
 
Iter     Tot. SCF        One-elec.       Two-elec.     Energy      Max Dij or  Max Fij      DNorm      TNorm      AccCon     Time
         Energy          Energy          Energy        Change      Delta Norm                                                in Sec.
   1  -107.958510610  -159.292044815    45.009221201   0.00E+00    3.90E-07    2.50E-08     5.82E+00   3.00E+01   None         0.
   2  -107.958510610  -159.292044760    45.009221146   1.14E-13*   4.17E-07    2.88E-08     5.82E+00   3.00E+01   EDIIS        0.
   3  -107.958510610  -159.292044762    45.009221148  -8.53E-14    8.62E-07    5.40E-08     5.82E+00   3.00E+01   c2DIIS       0.
 
       Convergence after   3 Iterations
--
 
 *****************************************************************************************************************************
 *                                                                                                                           *
 *                                             SCF/KS-DFT Program, Final results                                             *
 *                                                                                                                           *
 *                                                                                                                           *
 *                                                                                                                           *
 *                                                       Final Results                                                       *
 *                                                                                                                           *
 *****************************************************************************************************************************
 
::    Total SCF energy                               -107.9585106104
      One-electron energy                            -159.2920447620
      Two-electron energy                              45.0092211475
      Nuclear repulsion energy                          6.3243130041
      Kinetic energy (interpolated)                   108.0281943504
      Virial theorem                                    0.9993549486
      Total spin, S(S+1)                                0.0000000000
      Total spin, S                                     0.0000000000
      Max non-diagonal density matrix element           0.0000008625
      Max non-diagonal Fock matrix element              0.0000000540
 
 
      All orbitals with orbital energies smaller than  E(LUMO)+0.5 are printed
 
++    Molecular orbitals:
      -------------------
 
      Title: SCF orbitals

      Molecular orbitals for symmetry species 1: a  
 
          Orbital            1         2         3         4         5         6         7         8         9        10    
          Energy          -15.8223  -15.8223   -1.0270   -1.0208   -0.3192   -0.3126   -0.3126   -0.1841   -0.1841   -0.1723
          Occ. No.          2.0000    2.0000    2.0000    2.0000    2.0000    2.0000    2.0000    0.0000    0.0000    0.0000
 
        1 N1     1s         0.9672   -0.2539    0.0048   -0.0048    0.0003    0.0000   -0.0000   -0.0000    0.0000    0.0003
        2 N1     2s        -0.0066    0.0017    0.7096   -0.7040    0.0079    0.0000   -0.0000   -0.0000    0.0000    0.0171
        3 N1     3s        -0.0013    0.0003   -0.0149    0.0165   -0.0103   -0.0000    0.0000    0.0000   -0.0000   -0.0048
        4 N1     2px        0.0000   -0.0000   -0.0000   -0.0000    0.0000   -0.0000    0.7015    0.0000   -0.7038    0.0000
        5 N1     3px       -0.0000   -0.0000   -0.0000    0.0000    0.0000   -0.0000    0.0793    0.0000   -0.0789    0.0000
        6 N1     2py       -0.0000    0.0000    0.0000    0.0000   -0.0000    0.7016    0.0000   -0.7037   -0.0000   -0.0000
        7 N1     3py        0.0000   -0.0000   -0.0000   -0.0000   -0.0000    0.0793    0.0000   -0.0789   -0.0000   -0.0000
        8 N1     2pz        0.0001    0.0000    0.0025    0.0124   -0.6944    0.0000   -0.0000    0.0000   -0.0000    0.7094
        9 N1     3pz       -0.0001    0.0000    0.0015    0.0007   -0.0850    0.0000   -0.0000    0.0000   -0.0000    0.0787
       10 N1     3d2-       0.0000   -0.0000    0.0000   -0.0000   -0.0000   -0.0000   -0.0000    0.0000    0.0000    0.0000
       11 N1     3d1-       0.0000   -0.0000    0.0000   -0.0000    0.0000    0.0027    0.0000    0.0020    0.0000   -0.0000
       12 N1     3d0       -0.0000    0.0000    0.0002    0.0004   -0.0042   -0.0000    0.0000    0.0000   -0.0000   -0.0027
       13 N1     3d1+      -0.0000    0.0000   -0.0000    0.0000   -0.0000   -0.0000    0.0027   -0.0000    0.0020    0.0000
       14 N1     3d2+      -0.0000    0.0000   -0.0000    0.0000   -0.0000    0.0000   -0.0000   -0.0000    0.0000   -0.0000
       15 N2     1s         0.2539    0.9672    0.0048    0.0049    0.0003   -0.0000    0.0000   -0.0000    0.0000   -0.0003
       16 N2     2s        -0.0017   -0.0066    0.7031    0.7104    0.0079   -0.0000    0.0000   -0.0000    0.0000   -0.0171
       17 N2     3s        -0.0003   -0.0013   -0.0147   -0.0167   -0.0103    0.0000   -0.0000    0.0000   -0.0000    0.0048
       18 N2     2px        0.0000   -0.0000    0.0000   -0.0000   -0.0000   -0.0000    0.7016   -0.0000    0.7037    0.0000
       19 N2     3px        0.0000    0.0000   -0.0000    0.0000   -0.0000   -0.0000    0.0793   -0.0000    0.0789    0.0000
       20 N2     2py        0.0000    0.0000   -0.0000    0.0000    0.0000    0.7015    0.0000    0.7038    0.0000   -0.0000
       21 N2     3py       -0.0000   -0.0000   -0.0000   -0.0000    0.0000    0.0793    0.0000    0.0789    0.0000   -0.0000
       22 N2     2pz       -0.0000   -0.0001   -0.0026    0.0124    0.6944    0.0000   -0.0000   -0.0000    0.0000    0.7094
       23 N2     3pz        0.0000    0.0001   -0.0015    0.0006    0.0850    0.0000   -0.0000   -0.0000    0.0000    0.0787
       24 N2     3d2-      -0.0000   -0.0000   -0.0000   -0.0000    0.0000   -0.0000    0.0000   -0.0000    0.0000    0.0000
       25 N2     3d1-       0.0000    0.0000    0.0000    0.0000    0.0000   -0.0027   -0.0000    0.0020    0.0000    0.0000
       26 N2     3d0       -0.0000   -0.0000    0.0002   -0.0004   -0.0042    0.0000   -0.0000    0.0000   -0.0000    0.0027
       27 N2     3d1+      -0.0000   -0.0000   -0.0000   -0.0000   -0.0000    0.0000   -0.0027   -0.0000    0.0020   -0.0000
       28 N2     3d2+       0.0000    0.0000    0.0000    0.0000   -0.0000   -0.0000   -0.0000   -0.0000   -0.0000   -0.0000
--
 
 
++    Molecular charges:
      ------------------
 
      Mulliken charges per centre and basis function type
      ---------------------------------------------------
 
                N1      N2    
      1s       2.0000  2.0000
      2s       1.9985  1.9985
      2px      0.9864  0.9865
      2pz      0.9792  0.9792
      2py      0.9865  0.9864
      3s       0.0016  0.0016
      3px      0.0135  0.0135
      3pz      0.0205  0.0205
      3py      0.0135  0.0135
      3d2+     0.0000  0.0000
      3d1+     0.0000  0.0000
      3d0      0.0001  0.0001
      3d1-     0.0000  0.0000
      3d2-     0.0000  0.0000
      Total    7.0000  7.0000
 
      N-E      0.0000 -0.0000
 
      Total electronic charge=   14.000000
 
      Total            charge=   -0.000000
--
 
 
      Input file to MOLDEN was generated!
 
 
++    Static properties:
      ------------------
 
 
      LoProp Charges per center
 

                   N1       N2    
      Nuclear      7.0000   7.0000
      Electronic  -7.0000  -7.0000
 
      Total        0.0000  -0.0000
--
 
 
++    Natural Bond Order analysis
      ---------------------------
      Based on LoProp computed density
      -------------------------------------------------------------------------------------
      Atom A       Atom B       Bond Order
      -------------------------------------------------------------------------------------
      NBO located      1.000 non-bonded electrons on atom N1        
      NBO located      1.002 non-bonded electrons on atom N1        
      NBO located      1.000 non-bonded electrons on atom N2        
      NBO located      1.002 non-bonded electrons on atom N2        
      The remaining    3.023 electrons are to be considered as diffuse
--
 
 
++    Molecular properties:
      ---------------------
 
      Charge (e):
                      =   -0.0000
      Dipole Moment (debye):
      Origin of the operator (angstrom)=    0.0000    0.0000    2.0500
                   X=  8.0761E-12               Y=  1.2042E-10               Z= -4.1025E-04           Total=  4.1025E-04
      Quadrupole Moment (debye*angstrom):
      Origin of the operator (angstrom)=    0.0000    0.0000    2.0500
                  XX= -1.2067E+01              XY= -6.3909E-13              XZ=  7.1411E-09              YY= -1.2067E+01
                  YZ= -1.1491E-07              ZZ= -1.1043E+01
      In traceless form (debye*angstrom)
                  XX= -5.1196E-01              XY= -9.5863E-13              XZ=  1.0712E-08              YY= -5.1161E-01
                  YZ= -1.7237E-07              ZZ=  1.0236E+00
--
 
 
      Input file to MOLDEN was generated!
 
 ###############################################################################
 ###############################################################################
 ###                                                                         ###
 ###                                                                         ###
 ###    WARNING: RunFile label nBas                                          ###
 ###    was used       81 times                                              ###
 ###                                                                         ###
 ###                                                                         ###
 ###############################################################################
 ###############################################################################
--- Stop Module: scf at Mon Jan 26 11:44:05 2026 /rc=_RC_ALL_IS_WELL_ ---
*** files: n2_1_scf.LprOrb n2_1_scf.LoProp.molden n2_1_scf.scf.molden n2_1_scf.ScfOrb n2_1_scf.scf.h5 xmldump
    saved to directory /home/joaschee/autoCAS4HE/tests/autocas/external_scf/N2_test/n2_1_workdir

.##################.
.# Happy landing! #.
.##################.

    Timing: Wall=0.88 User=0.70 System=0.13
