========================================
autoCAS4HE environment loaded (Hortense)
========================================
  Serenity:    /dodrio/scratch/projects/starting_2025_097/autoCAS4HE_built/autoCAS4HE/serenity/build
  autoCAS:     /dodrio/scratch/projects/starting_2025_097/autoCAS4HE_built/autoCAS4HE/autocas_env/bin/scine_autocas
  Basis path:  /dodrio/scratch/projects/starting_2025_097/autoCAS4HE_built/autoCAS4HE/tests/custom_basis:/dodrio/scratch/projects/starting_2025_097/autoCAS4HE_built/autoCAS4HE/serenity/data/basis/
========================================
==============================================
  Po2 autoCAS Test with External DKH2 Orbitals
==============================================

Working directory: /dodrio/scratch/projects/starting_2025_097/autoCAS4HE_built/autoCAS4HE/tests/autocas/external_scf/Po2_test
Date: Mon Jan 26 01:44:18 PM CET 2026

Step 1: Running OpenMolcas SCF with DKH2 for both geometries...

Running OpenMolcas SCF for po2_0 (2.0 Å)...
Running OpenMolcas SCF for po2_1 (4.0 Å)...

OpenMolcas SCF completed. Orbital files generated:
-rw-r--r-- 1 vsc45694 gpr_compute_starting_2025_097 419656 Jan 26 13:44 po2_0.ScfOrb
-rw-r--r-- 1 vsc45694 gpr_compute_starting_2025_097 419654 Jan 26 13:46 po2_1.ScfOrb

Step 2: Running autoCAS with external DKH2 orbitals (-e flag)...


          ------------------------------------------------------------          
                                System system_0                                 
          ------------------------------------------------------------          

     Charge:                              0
     Spin:                                0
     Method:                             HF
     Basis Set:                ANO-RCC-VDZP
  Current Geometry (Angstrom):
 ------------------------------
        1 PO   -1.0000000000   +0.0000000000   +0.0000000000
        2 PO   +1.0000000000   +0.0000000000   +0.0000000000



          ------------------------------------------------------------          
                                System system_1                                 
          ------------------------------------------------------------          

     Charge:                              0
     Spin:                                0
     Method:                             HF
     Basis Set:                ANO-RCC-VDZP
  Current Geometry (Angstrom):
 ------------------------------
        1 PO   -2.0000000000   +0.0000000000   +0.0000000000
        2 PO   +2.0000000000   +0.0000000000   +0.0000000000



          ------------------------------------------------------------          
                            Running IBO Localization                            
          ------------------------------------------------------------          

  Note: Valence and core orbitals are localized separately.
        Please ensure that the initial orbitals were canonical orbitals!

  Number of core-like orbitals: 62    
  Core-like orbitals will be localized separately.
  Running orbital localization for valence orbitals.
  Core orbitals will be localized separately.
  IBO localization is used. Ignoring any specifications for Rydberg orbitals and referencing
  the IBO minimal basis set instead.

o------------------------------------------------------------------------------o
|                               Serenity Crashed                               |
o------------------------------------------------------------------------------o


  Error:
 --------
    A core orbital is assigned to be virtual. Something is wrong here!

  Final Timings:
 ----------------

  Program Crashed:
 ------------------
    Time:  2026-01-26 13:51:59
    On:    node5706.dodrio.os
Small error: you want to print a timing of something of which there is no starting time stored.
Maybe you already printed its timing (which stops the timer)? The label is the entire run.

Current directory: /dodrio/scratch/projects/starting_2025_097/autoCAS4HE_built/autoCAS4HE/tests/autocas/external_scf/Po2_test/autocas_project
Final energy evaluation method: DMRGSCF
*******************************************************************************************
*                                                                                         *
*                               Orbital Preparation                                       *
*                                                                                         *
*******************************************************************************************
Found <pymolcas> binary in /readonly/dodrio/apps/RHEL9/zen3-ib/software/OpenMolcas/25.06-iomkl-2023a-DMRG-no-MPI/pymolcas
Preparing initial orbitals
/dodrio/scratch/projects/starting_2025_097/autoCAS4HE_built/autoCAS4HE/tests/autocas/external_scf/Po2_test/autocas_project/scratch
Current directory: /dodrio/scratch/projects/starting_2025_097/autoCAS4HE_built/autoCAS4HE/tests/autocas/external_scf/Po2_test/autocas_project/initial
Starting initial orbital calculation.

Found <pymolcas> binary in /readonly/dodrio/apps/RHEL9/zen3-ib/software/OpenMolcas/25.06-iomkl-2023a-DMRG-no-MPI/pymolcas
/readonly/dodrio/apps/RHEL9/zen3-ib/software/OpenMolcas/25.06-iomkl-2023a-DMRG-no-MPI/pymolcas -b 1 -f
MOLCAS_PROJECT:  system_0
MOLCAS_MEM:      12000
WorkDir:         /dodrio/scratch/projects/starting_2025_097/autoCAS4HE_built/autoCAS4HE/tests/autocas/external_scf/Po2_test/autocas_project/scratch
MOLCAS_NPROCS:   
OMP_NUM_THREADS: 
QCMaquis_CPU:    
Initial orbitals finished.
Found <pymolcas> binary in /readonly/dodrio/apps/RHEL9/zen3-ib/software/OpenMolcas/25.06-iomkl-2023a-DMRG-no-MPI/pymolcas
Preparing initial orbitals
Current directory: /dodrio/scratch/projects/starting_2025_097/autoCAS4HE_built/autoCAS4HE/tests/autocas/external_scf/Po2_test/autocas_project/initial
Starting initial orbital calculation.

Found <pymolcas> binary in /readonly/dodrio/apps/RHEL9/zen3-ib/software/OpenMolcas/25.06-iomkl-2023a-DMRG-no-MPI/pymolcas
/readonly/dodrio/apps/RHEL9/zen3-ib/software/OpenMolcas/25.06-iomkl-2023a-DMRG-no-MPI/pymolcas -b 1 -f
MOLCAS_PROJECT:  system_1
MOLCAS_MEM:      12000
WorkDir:         /dodrio/scratch/projects/starting_2025_097/autoCAS4HE_built/autoCAS4HE/tests/autocas/external_scf/Po2_test/autocas_project/scratch
MOLCAS_NPROCS:   
OMP_NUM_THREADS: 
QCMaquis_CPU:    
Initial orbitals finished.
Loading external orbitals (skipping Serenity SCF)...
External orbital files: ['/dodrio/scratch/projects/starting_2025_097/autoCAS4HE_built/autoCAS4HE/tests/autocas/external_scf/Po2_test/po2_0.ScfOrb', '/dodrio/scratch/projects/starting_2025_097/autoCAS4HE_built/autoCAS4HE/tests/autocas/external_scf/Po2_test/po2_1.ScfOrb']
  Copying /dodrio/scratch/projects/starting_2025_097/autoCAS4HE_built/autoCAS4HE/tests/autocas/external_scf/Po2_test/po2_0.ScfOrb -> /dodrio/scratch/projects/starting_2025_097/autoCAS4HE_built/autoCAS4HE/tests/autocas/external_scf/Po2_test/autocas_project/initial/system_0.ScfOrb
  Copying /dodrio/scratch/projects/starting_2025_097/autoCAS4HE_built/autoCAS4HE/tests/autocas/external_scf/Po2_test/po2_1.ScfOrb -> /dodrio/scratch/projects/starting_2025_097/autoCAS4HE_built/autoCAS4HE/tests/autocas/external_scf/Po2_test/autocas_project/initial/system_1.ScfOrb

==============================================
  Test completed!
==============================================

Date: Mon Jan 26 01:52:01 PM CET 2026
Check the output files for results.
