========================================
autoCAS4HE environment loaded (Hortense)
========================================
  Serenity:    /dodrio/scratch/projects/starting_2025_097/autoCAS4HE_built/autoCAS4HE/serenity/build
  autoCAS:     /dodrio/scratch/projects/starting_2025_097/autoCAS4HE_built/autoCAS4HE/autocas_env/bin/scine_autocas
  Basis path:  /dodrio/scratch/projects/starting_2025_097/autoCAS4HE_built/autoCAS4HE/tests/custom_basis:/dodrio/scratch/projects/starting_2025_097/autoCAS4HE_built/autoCAS4HE/serenity/data/basis/
========================================
==============================================
  Po2 autoCAS Test with External DKH2 Orbitals
==============================================

Working directory: /dodrio/scratch/projects/starting_2025_097/autoCAS4HE_built/autoCAS4HE/tests/autocas/external_scf/Po2_test
Date: Mon Jan 26 03:08:33 PM CET 2026

Step 1: Running OpenMolcas SCF with DKH2 for both geometries...

Running OpenMolcas SCF for po2_0 (2.0 Å)...
  Copied po2_0.scf.h5 (DKH2 orbitals with correct eigenvalues)
Running OpenMolcas SCF for po2_1 (4.0 Å)...
  Copied po2_1.scf.h5 (DKH2 orbitals with correct eigenvalues)

OpenMolcas SCF completed. Orbital files generated:
-rw-r--r-- 1 vsc45694 gpr_compute_starting_2025_097 1421154 Jan 26 15:08 po2_0.scf.h5
-rw-r--r-- 1 vsc45694 gpr_compute_starting_2025_097 1425521 Jan 26 15:08 po2_1.scf.h5

Step 2: Running autoCAS with external DKH2 orbitals (-e flag)...


          ------------------------------------------------------------          
                                System system_0                                 
          ------------------------------------------------------------          

     Charge:                              0
     Spin:                                0
     Method:                             HF
     Basis Set:                ANO-RCC-VDZP
  Current Geometry (Angstrom):
 ------------------------------
        1 PO   -1.0000000000   +0.0000000000   +0.0000000000
        2 PO   +1.0000000000   +0.0000000000   +0.0000000000



          ------------------------------------------------------------          
                                System system_1                                 
          ------------------------------------------------------------          

     Charge:                              0
     Spin:                                0
     Method:                             HF
     Basis Set:                ANO-RCC-VDZP
  Current Geometry (Angstrom):
 ------------------------------
        1 PO   -2.0000000000   +0.0000000000   +0.0000000000
        2 PO   +2.0000000000   +0.0000000000   +0.0000000000


Current directory: /dodrio/scratch/projects/starting_2025_097/autoCAS4HE_built/autoCAS4HE/tests/autocas/external_scf/Po2_test/autocas_project
Final energy evaluation method: DMRGSCF
*******************************************************************************************
*                                                                                         *
*                               Orbital Preparation                                       *
*                                                                                         *
*******************************************************************************************
Found <pymolcas> binary in /readonly/dodrio/apps/RHEL9/zen3-ib/software/OpenMolcas/25.06-iomkl-2023a-DMRG-no-MPI/pymolcas
Preparing initial orbitals
/dodrio/scratch/projects/starting_2025_097/autoCAS4HE_built/autoCAS4HE/tests/autocas/external_scf/Po2_test/autocas_project/scratch
Current directory: /dodrio/scratch/projects/starting_2025_097/autoCAS4HE_built/autoCAS4HE/tests/autocas/external_scf/Po2_test/autocas_project/initial
Starting initial orbital calculation.

Found <pymolcas> binary in /readonly/dodrio/apps/RHEL9/zen3-ib/software/OpenMolcas/25.06-iomkl-2023a-DMRG-no-MPI/pymolcas
/readonly/dodrio/apps/RHEL9/zen3-ib/software/OpenMolcas/25.06-iomkl-2023a-DMRG-no-MPI/pymolcas -b 1 -f
MOLCAS_PROJECT:  system_0
MOLCAS_MEM:      12000
WorkDir:         /dodrio/scratch/projects/starting_2025_097/autoCAS4HE_built/autoCAS4HE/tests/autocas/external_scf/Po2_test/autocas_project/scratch
MOLCAS_NPROCS:   
OMP_NUM_THREADS: 
QCMaquis_CPU:    
Initial orbitals finished.
Found <pymolcas> binary in /readonly/dodrio/apps/RHEL9/zen3-ib/software/OpenMolcas/25.06-iomkl-2023a-DMRG-no-MPI/pymolcas
Preparing initial orbitals
Current directory: /dodrio/scratch/projects/starting_2025_097/autoCAS4HE_built/autoCAS4HE/tests/autocas/external_scf/Po2_test/autocas_project/initial
Starting initial orbital calculation.

Found <pymolcas> binary in /readonly/dodrio/apps/RHEL9/zen3-ib/software/OpenMolcas/25.06-iomkl-2023a-DMRG-no-MPI/pymolcas
/readonly/dodrio/apps/RHEL9/zen3-ib/software/OpenMolcas/25.06-iomkl-2023a-DMRG-no-MPI/pymolcas -b 1 -f
MOLCAS_PROJECT:  system_1
MOLCAS_MEM:      12000
WorkDir:         /dodrio/scratch/projects/starting_2025_097/autoCAS4HE_built/autoCAS4HE/tests/autocas/external_scf/Po2_test/autocas_project/scratch
MOLCAS_NPROCS:   
OMP_NUM_THREADS: 
QCMaquis_CPU:    
Initial orbitals finished.
Loading external orbitals (skipping Serenity SCF)...
External orbital files: ['/dodrio/scratch/projects/starting_2025_097/autoCAS4HE_built/autoCAS4HE/tests/autocas/external_scf/Po2_test/po2_0.scf.h5', '/dodrio/scratch/projects/starting_2025_097/autoCAS4HE_built/autoCAS4HE/tests/autocas/external_scf/Po2_test/po2_1.scf.h5']
  Copying /dodrio/scratch/projects/starting_2025_097/autoCAS4HE_built/autoCAS4HE/tests/autocas/external_scf/Po2_test/po2_0.scf.h5 -> /dodrio/scratch/projects/starting_2025_097/autoCAS4HE_built/autoCAS4HE/tests/autocas/external_scf/Po2_test/autocas_project/initial/system_0.scf.h5
  Copying /dodrio/scratch/projects/starting_2025_097/autoCAS4HE_built/autoCAS4HE/tests/autocas/external_scf/Po2_test/po2_1.scf.h5 -> /dodrio/scratch/projects/starting_2025_097/autoCAS4HE_built/autoCAS4HE/tests/autocas/external_scf/Po2_test/autocas_project/initial/system_1.scf.h5
  Eigenvalues BEFORE loading external orbitals:

==============================================
  Test completed!
==============================================

Date: Mon Jan 26 03:15:01 PM CET 2026
Check the output files for results.
