#!/bin/bash
# OpenMolcas RHF benchmark for Po2 with ANO-RCC-VDZP
#PBS -N molcas_Po2_RHF
#PBS -A 2025_127
#PBS -l nodes=1:ppn=16
#PBS -l walltime=04:00:00
#PBS -l mem=32gb

# Set your project
PROJECT="starting_2025_097"
INSTALL_DIR="/dodrio/scratch/projects/${PROJECT}/autoCAS4HE_built/autoCAS4HE"
source ${INSTALL_DIR}/setup_hortense.sh

cd $PBS_O_WORKDIR

# Fix MOLCAS_WORKDIR - use absolute path, not ~
export MOLCAS_WORKDIR=$PBS_O_WORKDIR/molcas_scratch
mkdir -p $MOLCAS_WORKDIR

echo "=== OpenMolcas RHF Benchmark: Po2 with ANO-RCC-VDZP ==="
echo "Start time: $(date)"
echo ""

# Run OpenMolcas
time pymolcas Po2_RHF.input

echo ""
echo "End time: $(date)"
