========================================
autoCAS4HE environment loaded (Hortense)
========================================
  Serenity:    /dodrio/scratch/projects/starting_2025_097/autoCAS4HE_built/autoCAS4HE/serenity/build
  autoCAS:     /dodrio/scratch/projects/starting_2025_097/autoCAS4HE_built/autoCAS4HE/autocas_env/bin/scine_autocas
  Basis path:  /dodrio/scratch/projects/starting_2025_097/autoCAS4HE_built/autoCAS4HE/tests/custom_basis:/dodrio/scratch/projects/starting_2025_097/autoCAS4HE_built/autoCAS4HE/serenity/data/basis/
========================================
=== OpenMolcas RHF Benchmark: Po2 with ANO-RCC-VDZP ===
Start time: Fri Jan 23 10:01:24 PM CET 2026

   This run of MOLCAS is using the pymolcas driver

                             OPE
                             OPE          NMOL  CASOP  ENMOLC A   SO
                 OPE        NMOLC        AS  OP EN  MO LC     AS  OP
                OPENM       OL CA        SO  PE NM  OL CA     SOP EN
                OP EN      MO   LC       AS  OP ENMOL  CASO   PENMOL
                OP  EN     MO   LC       AS  OP EN     MO     LC ASO
               OP   E  NMOL  C  AS       OP  EN MO     LC     AS  OP
               OP  E   NMO   LC AS        OPEN  MO     LCASOP EN   M
               O  PEN   MO  LCA  SO
            OPE   NMO   L   CAS    OP
        OPENMOL  CASOP     ENMOL   CASOPE
     OPENMOLCA   SOPENMOLCASOPEN   MOLCASOPE
    OPENMOLCAS   OP           EN   MOL    CAS
    OPENMOLCAS       OP  ENM        O     LCA
    OPENMOLCAS    OPEN  MOLCASO     P  E  NMO
    OPENMOLCAS     OP               E  N  MOL
    OPENMOLCA   SO           PENM   O  L  CAS    OPEN    MO    LCAS
    OPENMOLCA   SOP           ENM   O  L  CAS   OP  EN  MOLC  AS   O
    OPENMOLCA   SOPE           NM      O  LCA   S      OP  EN MO
    OPENMOLC                AS         O  PEN   M      OL  CA  SOPE
    OPENMO        LCASOPE  NMOL        C  ASO   P      ENMOLC     AS
    OPE     NMO      LCA  SO     P     E   NM   OL  CA SO  PE N   MO
          OPENMOLCA            SOPE   NMO        LCAS  O    P  ENMO
     OPENMOLCASOPENMOLCASOPENMOLCASOPENMOLCA
        OPENMOLCASOPENMOLCASOPENMOLCASOPE
            OPENMOLCASOPENMOLCASOPENM
               OPENMOLCASOPENMOLCA        version: v25.06 ?
                   OPENMOLCASO
                       OPE                tag:

 OpenMolcas is free software; you can redistribute it and/or modify it
 under the terms of the GNU Lesser General Public License version 2.1.
 OpenMolcas is distributed in the hope that it will be useful, but it
 is provided "as is" and without any express or implied warranties.
 For more details see the full text of the license in the file
 LICENSE or in <http://www.gnu.org/licenses/>.

                 Copyright (C) The OpenMolcas Authors
           For the author list and the recommended citation,
                   consult the file CONTRIBUTORS.md

           *************************************************
           * pymolcas version py2.29                       *
           *   build 637753c454b0e8fef9459a9b878b37a5      *
           *   (after the EMIL interpreter by V. Veryazov) *
           *************************************************

configuration info
------------------
Host name: node5385.dodrio.os (Linux)
C Compiler ID: IntelLLVM
C flags: -O2 -march=core-avx2 -fp-model precise -std=gnu99 -qopenmp
Fortran Compiler ID: Intel
Fortran flags: -O2 -march=core-avx2 -fp-model precise  -fpp -i8 -heap-arrays -qopenmp
Definitions: _MOLCAS_;_I8_;_LINUX_
Parallel: OFF (GA=OFF)


   --------------------------------------------------------------------------------------------------------------------------------------------------------
  |
  |           Project: Po2_RHF
  |    Submitted from: /dodrio/scratch/projects/starting_2025_097/autoCAS4HE_built/autoCAS4HE/tests/molcas/Po2_RHF_benchmark
  |      Scratch area: /dodrio/scratch/projects/starting_2025_097/autoCAS4HE_built/autoCAS4HE/tests/molcas/Po2_RHF_benchmark/molcas_scratch/Po2_RHF.2347820
  |   Save outputs to: /dodrio/scratch/projects/starting_2025_097/autoCAS4HE_built/autoCAS4HE/tests/molcas/Po2_RHF_benchmark/Po2_RHF
  |            Molcas: /readonly/dodrio/apps/RHEL9/zen3-ib/software/OpenMolcas/25.06-iomkl-2023a-DMRG-no-MPI
  |
  | Scratch area is empty
  |
  |    MOLCAS_DRIVER = /readonly/dodrio/apps/RHEL9/zen3-ib/software/OpenMolcas/25.06-iomkl-2023a-DMRG-no-MPI/pymolcas
  |    MOLCAS_MOLDEN = YES
  |    MOLCAS_NPROCS = 1
  |     MOLCAS_PRINT = DEBUG
  |    MOLCAS_SOURCE = /readonly/dodrio/apps/RHEL9/zen3-ib/software/OpenMolcas/25.06-iomkl-2023a-DMRG-no-MPI
  | MOLCAS_STRUCTURE = 0
  |
   --------------------------------------------------------------------------------------------------------------------------------------------------------

++ ---------   Input file   ---------

&GATEWAY
  Coord = Po2.xyz
  Basis = ANO-RCC-VDZP
  Group = NoSym

&SEWARD

&SCF
  Title = Po2 RHF benchmark with ANO-RCC-VDZP

-- ----------------------------------

--- Start Module: gateway at Fri Jan 23 22:01:27 2026 ---
 
()()()()()()()()()()()()()()()()()()()()()()()()()()()()()()()()()()()()()()()()()()()()()()()()()()

                                              &GATEWAY

                                   only a single process is used
                       available to each process: 2.0 GB of memory, 1 thread
                                            pid: 2347933
()()()()()()()()()()()()()()()()()()()()()()()()()()()()()()()()()()()()()()()()()()()()()()()()()()
 
 
 
 Basis Set     1 Label: PO.ANO-RCC-VDZP
 Basis set is read from library:basis_library 
 Basis Set Reference(s):
     B.O. Roos, R. Lindh, P.-A. Malmqvist, V. Veryazov, P.-O. Widmark. J. Phys. Chem. A 108 (2004) 2851-2858. doi:10.1021/jp031064+
     POLONIUM (25s,22p,16d,12f,4g) -> [11s,10p,9d,6f,4g]
 
 
 
  Weights used for alignment and distance                     
  mat. size =     2x    1
      208.9824308000000030
      208.9824308000000030
 
 
++    Symmetry information:
      ---------------------
 
                    Character Table for C1 
 
                             E  
                    a        1  x, y, xy, Rz, z, xz, Ry, yz, Rx, I
--
 
 
++    Basis set information:
      ----------------------
 
 
      Basis set label: PO.ANO-RCC...7S6P4D2F1G.
 
      Electronic valence basis set:
      ------------------
      Associated Effective Charge  84.000000 au
      Associated Actual Charge     84.000000 au
      Nuclear Model: Point charge
 
      Shell  nPrim  nBasis  Cartesian Spherical Contaminant
         s      25       7        X                  
         p      22       6        X                  
         d      16       4                 X         
         f      12       2                 X         
         g       4       1                 X         
 
       Label   Cartesian Coordinates / bohr
 
 PO1                0.0000000000        0.0000000000        0.0000000000
 PO2                3.7794522518        0.0000000000        0.0000000000
--
 
 
++    Molecular structure info:
      -------------------------
 
                    ************************************************ 
                    **** Cartesian Coordinates / bohr, angstrom **** 
                    ************************************************ 
 
     Center  Label                x              y              z                     x              y              z
        1      PO1              0.000000       0.000000       0.000000              0.000000       0.000000       0.000000
        2      PO2              3.779452       0.000000       0.000000              2.000000       0.000000       0.000000
--
 
 
++    Isotope specification:
      ----------------------
 
 Center
 Type   Z    A    mass (Da)
 --------------------------
    1  84  209   208.982431
--
 
 
++    Rigid rotor info:
      -----------------
 
 
                    Total mass (a) : 417.96486
 
                    Center of mass 
                          X          Y   
                       1.88973    0.00000    0.00000
 
                    Reference system based on center of mass
                    Coordinates and Masses of Atoms, in au and A
                          X          Y          Z        Mass
                      -1.88973    0.00000    0.00000  208.98243
                       1.88973    0.00000    0.00000  208.98243
 
                    The Moment of Inertia Tensor / au
                                     X          Y        Z     
                    X             1.3317E-11
                    Y             0.0000E+00 2.7208E+06
                    Z             0.0000E+00 0.0000E+00 2.7208E+06
 
 
  Pax                                                         
  mat. size =     3x    3
        1.0000000000000000      0.0000000000000000      0.0000000000000000
        0.0000000000000000      1.0000000000000000      0.0000000000000000
        0.0000000000000000      0.0000000000000000      1.0000000000000000
                    The Principal Axes and Moments of Inertia (au)
                    Eigenvalues : 2.7208E+06 2.7208E+06 0.0000E+00
                                     X'         Y'       Z'    
                    Eigenvectors:
                    X             0.0000E+00 0.0000E+00 1.0000E+00
                    Y             1.0000E+00 0.0000E+00 0.0000E+00
                    Z             0.0000E+00 1.0000E+00 0.0000E+00
 
                    The Rotational Constants
                            (cm-1)            (GHz)
                              0.040            1.209
                              0.040            1.209
 
 
                    *******************************************
                    *                                         *
                    * R I G I D - R O T O R   A N A L Y S I S *
                    *                                         *
                    *******************************************
 
                    j(Max):  5
 
                    Rotor Type: Linear Rotor
                    Asymmetry parameter: -1.000
                    Prolate = -1
                    Oblate  =  1
 
 
                    Rotational energies / cm-1
 
                    E(J= 0) =    0.000
 
                    E(J= 1) =    0.081
 
                    E(J= 2) =    0.242
 
                    E(J= 3) =    0.484
 
                    E(J= 4) =    0.807
 
                    E(J= 5) =    1.210
--
 
 
++    Primitive basis info:
      ---------------------
 
 
                    *****************************************************
                    ******** Primitive Basis Functions (Valence) ********
                    *****************************************************
 
 
 Basis set:PO.ANO-RCC...7S6P4D2F1G.                                                        
 
                  Type         
                   s
           No.      Exponent    Contraction Coefficients
            1  5.449886210E+07   0.001372  -0.000545   0.000263  -0.000134   0.000061  -0.000022   0.000029
            2  1.309612090E+07   0.001655  -0.000659   0.000318  -0.000162   0.000074  -0.000027   0.000035
            3  3.878386940E+06   0.004355  -0.001738   0.000840  -0.000426   0.000196  -0.000071   0.000093
            4  1.248126680E+06   0.007628  -0.003059   0.001479  -0.000751   0.000345  -0.000126   0.000164
            5  4.308857500E+05   0.015370  -0.006206   0.003004  -0.001526   0.000701  -0.000256   0.000333
            6  1.569159280E+05   0.028094  -0.011488   0.005573  -0.002832   0.001301  -0.000475   0.000619
            7  5.987864890E+04   0.052832  -0.022033   0.010725  -0.005453   0.002507  -0.000915   0.001189
            8  2.371398000E+04   0.096445  -0.041611   0.020368  -0.010378   0.004770  -0.001740   0.002273
            9  9.664090770E+03   0.172969  -0.078960   0.039057  -0.019927   0.009174  -0.003352   0.004342
           10  4.042681300E+03   0.276518  -0.139525   0.070244  -0.036074   0.016600  -0.006054   0.007948
           11  1.740536270E+03   0.332765  -0.195104   0.101327  -0.052237   0.024157  -0.008846   0.011337
           12  7.714290540E+02   0.207520  -0.100108   0.048465  -0.024974   0.011335  -0.004077   0.005828
           13  3.509046200E+02   0.033460   0.324239  -0.257708   0.149371  -0.070445   0.025710  -0.035082
           14  1.662260150E+02   0.001274   0.597476  -0.633726   0.391200  -0.190493   0.070723  -0.088761
           15  8.123101390E+01  -0.001023   0.229632  -0.120435   0.073075  -0.031957   0.010576  -0.023102
           16  4.069936800E+01   0.000845   0.011176   0.875754  -1.007843   0.564316  -0.212203   0.305398
           17  2.034905250E+01  -0.000639   0.000346   0.454578  -0.545544   0.337843  -0.136631   0.135306
           18  1.004866100E+01   0.000415  -0.000070   0.016906   1.039372  -0.968782   0.419716  -0.512671
           19  4.919576700E+00  -0.000227  -0.000155   0.006194   0.569226  -0.766253   0.346614  -0.644020
           20  2.213117740E+00   0.000110   0.000103  -0.002707   0.008495   1.057822  -0.667287   1.621686
           21  9.608370900E-01  -0.000051  -0.000045   0.001105   0.006564   0.592168  -0.606242  -0.086453
           22  3.725348200E-01   0.000022   0.000021  -0.000495  -0.002588  -0.012320   0.727524  -1.767929
           23  1.318544300E-01  -0.000011  -0.000011   0.000249   0.001277   0.013187   0.695013   0.798028
           24  5.274177000E-02   0.000006   0.000006  -0.000128  -0.000669  -0.006818  -0.006153   0.537905
           25  2.109670000E-02  -0.000002  -0.000002   0.000038   0.000199   0.002057   0.016983   0.118563
 
                  Type         
                   p
           No.      Exponent    Contraction Coefficients
           26  2.004599670E+07   0.000036  -0.000019   0.000009  -0.000004   0.000001  -0.000002
           27  3.786356900E+06   0.000092  -0.000048   0.000024  -0.000010   0.000003  -0.000005
           28  8.903308880E+05   0.000265  -0.000138   0.000070  -0.000030   0.000009  -0.000013
           29  2.404348700E+05   0.000719  -0.000376   0.000191  -0.000083   0.000025  -0.000036
           30  7.229226460E+04   0.002009  -0.001055   0.000535  -0.000232   0.000069  -0.000103
           31  2.385278250E+04   0.005725  -0.003024   0.001537  -0.000669   0.000198  -0.000293
           32  8.590617060E+03   0.016546  -0.008837   0.004504  -0.001955   0.000580  -0.000868
           33  3.360337110E+03   0.046986  -0.025510   0.013058  -0.005696   0.001686  -0.002490
           34  1.413273460E+03   0.122805  -0.068857   0.035515  -0.015439   0.004585  -0.006890
           35  6.301800150E+02   0.263698  -0.154584   0.080705  -0.035431   0.010488  -0.015402
           36  2.941769660E+02   0.386429  -0.236366   0.124663  -0.054223   0.016158  -0.024657
           37  1.421068570E+02   0.289230  -0.087631   0.029034  -0.011884   0.003254  -0.003229
           38  6.887919950E+01   0.070671   0.405405  -0.329155   0.162092  -0.048443   0.068662
           39  3.473946720E+01   0.000362   0.555391  -0.465730   0.219227  -0.067174   0.110209
           40  1.739252360E+01   0.000926   0.167515   0.256050  -0.178579   0.059798  -0.111742
           41  8.586781540E+00  -0.000575   0.007511   0.732992  -0.583333   0.185980  -0.254805
           42  4.183036740E+00   0.000242   0.000664   0.249760   0.033435  -0.018440  -0.021540
           43  1.882156340E+00  -0.000099  -0.000261   0.008476   0.778081  -0.366193   0.844081
           44  8.255012700E-01   0.000042   0.000039   0.001165   0.353880  -0.091689  -0.484751
           45  2.553136800E-01  -0.000013  -0.000015  -0.000321   0.015645   0.643100  -0.860964
           46  8.323531000E-02   0.000006   0.000008   0.000133  -0.001016   0.487752   0.696574
           47  3.329412000E-02  -0.000002  -0.000003  -0.000054   0.000445   0.032674   0.420368
 
                  Type         
                   d
           No.      Exponent    Contraction Coefficients
           48  9.664090770E+03   0.000382  -0.000205   0.000076  -0.000051
           49  4.042681300E+03   0.001085  -0.000580   0.000212  -0.000143
           50  1.740536270E+03   0.005379  -0.002910   0.001087  -0.000723
           51  7.714290540E+02   0.022329  -0.012107   0.004459  -0.003003
           52  3.509046200E+02   0.080636  -0.044594   0.016679  -0.011135
           53  1.662260150E+02   0.215630  -0.120756   0.044800  -0.030210
           54  8.123101390E+01   0.380175  -0.209202   0.078452  -0.052088
           55  4.069936800E+01   0.361781  -0.127098   0.038199  -0.025173
           56  2.034905250E+01   0.137645   0.264650  -0.129018   0.094536
           57  1.004866100E+01   0.012690   0.536895  -0.260948   0.174847
           58  4.919576700E+00   0.001035   0.308465  -0.025794   0.002722
           59  2.213117740E+00  -0.000252   0.042871   0.455881  -0.464563
           60  9.608370900E-01   0.000131  -0.001050   0.523945  -0.174190
           61  3.725348200E-01  -0.000060   0.000571   0.177569   0.626021
           62  1.490139200E-01   0.000029  -0.000287   0.000864   0.442169
           63  5.960556000E-02  -0.000010   0.000090   0.003931   0.068945
 
                  Type         
                   f
           No.      Exponent    Contraction Coefficients
           64  6.301800150E+02   0.001210  -0.000416
           65  2.941769660E+02   0.004603  -0.001622
           66  1.421068570E+02   0.024199  -0.008382
           67  6.887919950E+01   0.080867  -0.028275
           68  3.473946720E+01   0.200382  -0.071077
           69  1.739252360E+01   0.341928  -0.126936
           70  8.586781540E+00   0.366591  -0.125620
           71  4.183036740E+00   0.229261   0.031815
           72  1.882156340E+00   0.064227   0.544244
           73  7.528625300E-01   0.002061   0.478125
           74  3.011450100E-01   0.000674   0.097675
           75  1.204580000E-01  -0.000239   0.029294
 
                  Type         
                   g
           No.      Exponent    Contraction Coefficients
           76  1.767416000E+00   0.666694
           77  7.069664000E-01   0.385204
           78  2.827865000E-01   0.146884
           79  1.131146000E-01   0.004997
 
  Number of primitives                                   582
  Number of basis functions                              136
 
--
 
 
++    SO/AO info:
      -----------
 
                    **************************************************
                    ********** Petite list Basis Functions ***********
                    **************************************************
 
 
           Basis functions generated by E  
 
 Basis Label        Type   Center
    1  PO1           1s       1
    2  PO1           2s       1
    3  PO1           3s       1
    4  PO1           4s       1
    5  PO1           5s       1
    6  PO1           6s       1
    7  PO1           7s       1
    8  PO1           2px      1
    9  PO1           3px      1
   10  PO1           4px      1
   11  PO1           5px      1
   12  PO1           6px      1
   13  PO1           7px      1
   14  PO1           2py      1
   15  PO1           3py      1
   16  PO1           4py      1
   17  PO1           5py      1
   18  PO1           6py      1
   19  PO1           7py      1
   20  PO1           2pz      1
   21  PO1           3pz      1
   22  PO1           4pz      1
   23  PO1           5pz      1
   24  PO1           6pz      1
   25  PO1           7pz      1
   26  PO1           3d2-     1
   27  PO1           4d2-     1
   28  PO1           5d2-     1
   29  PO1           6d2-     1
   30  PO1           3d1-     1
   31  PO1           4d1-     1
   32  PO1           5d1-     1
   33  PO1           6d1-     1
   34  PO1           3d0      1
   35  PO1           4d0      1
   36  PO1           5d0      1
   37  PO1           6d0      1
   38  PO1           3d1+     1
   39  PO1           4d1+     1
   40  PO1           5d1+     1
   41  PO1           6d1+     1
   42  PO1           3d2+     1
   43  PO1           4d2+     1
   44  PO1           5d2+     1
   45  PO1           6d2+     1
   46  PO1           4f3-     1
   47  PO1           5f3-     1
   48  PO1           4f2-     1
   49  PO1           5f2-     1
   50  PO1           4f1-     1
   51  PO1           5f1-     1
   52  PO1           4f0      1
   53  PO1           5f0      1
   54  PO1           4f1+     1
   55  PO1           5f1+     1
   56  PO1           4f2+     1
   57  PO1           5f2+     1
   58  PO1           4f3+     1
   59  PO1           5f3+     1
   60  PO1           5g4-     1
   61  PO1           5g3-     1
   62  PO1           5g2-     1
   63  PO1           5g1-     1
   64  PO1           5g0      1
   65  PO1           5g1+     1
   66  PO1           5g2+     1
   67  PO1           5g3+     1
   68  PO1           5g4+     1
   69  PO2           1s       2
   70  PO2           2s       2
   71  PO2           3s       2
   72  PO2           4s       2
   73  PO2           5s       2
   74  PO2           6s       2
   75  PO2           7s       2
   76  PO2           2px      2
   77  PO2           3px      2
   78  PO2           4px      2
   79  PO2           5px      2
   80  PO2           6px      2
   81  PO2           7px      2
   82  PO2           2py      2
   83  PO2           3py      2
   84  PO2           4py      2
   85  PO2           5py      2
   86  PO2           6py      2
   87  PO2           7py      2
   88  PO2           2pz      2
   89  PO2           3pz      2
   90  PO2           4pz      2
   91  PO2           5pz      2
   92  PO2           6pz      2
   93  PO2           7pz      2
   94  PO2           3d2-     2
   95  PO2           4d2-     2
   96  PO2           5d2-     2
   97  PO2           6d2-     2
   98  PO2           3d1-     2
   99  PO2           4d1-     2
  100  PO2           5d1-     2
  101  PO2           6d1-     2
  102  PO2           3d0      2
  103  PO2           4d0      2
  104  PO2           5d0      2
  105  PO2           6d0      2
  106  PO2           3d1+     2
  107  PO2           4d1+     2
  108  PO2           5d1+     2
  109  PO2           6d1+     2
  110  PO2           3d2+     2
  111  PO2           4d2+     2
  112  PO2           5d2+     2
  113  PO2           6d2+     2
  114  PO2           4f3-     2
  115  PO2           5f3-     2
  116  PO2           4f2-     2
  117  PO2           5f2-     2
  118  PO2           4f1-     2
  119  PO2           5f1-     2
  120  PO2           4f0      2
  121  PO2           5f0      2
  122  PO2           4f1+     2
  123  PO2           5f1+     2
  124  PO2           4f2+     2
  125  PO2           5f2+     2
  126  PO2           4f3+     2
  127  PO2           5f3+     2
  128  PO2           5g4-     2
  129  PO2           5g3-     2
  130  PO2           5g2-     2
  131  PO2           5g1-     2
  132  PO2           5g0      2
  133  PO2           5g1+     2
  134  PO2           5g2+     2
  135  PO2           5g3+     2
  136  PO2           5g4+     2
 
      Basis set specifications :
      Symmetry species        a  
      Basis functions         136
--
 
 
            Nuclear Potential Energy           1866.93719880 au
 
--- Stop Module: gateway at Fri Jan 23 22:01:30 2026 /rc=_RC_ALL_IS_WELL_ ---
*** files: xmldump
    saved to directory /dodrio/scratch/projects/starting_2025_097/autoCAS4HE_built/autoCAS4HE/tests/molcas/Po2_RHF_benchmark/Po2_RHF
--- Module gateway spent 2 seconds ---

--- Start Module: seward at Fri Jan 23 22:01:30 2026 ---
 
()()()()()()()()()()()()()()()()()()()()()()()()()()()()()()()()()()()()()()()()()()()()()()()()()()

                                              &SEWARD

                                   only a single process is used
                       available to each process: 2.0 GB of memory, 1 thread
                                            pid: 2347937
()()()()()()()()()()()()()()()()()()()()()()()()()()()()()()()()()()()()()()()()()()()()()()()()()()
 
 
  Weights used for alignment and distance                     
  mat. size =     2x    1
      208.9824308000000030
      208.9824308000000030
 
               SEWARD will generate:
                  Multipole Moment integrals up to order  2
                  Kinetic Energy integrals
                  Nuclear Attraction integrals (point charge)
                  One-Electron Hamiltonian integrals
                  Velocity integrals
                  Relativistic Douglas-Kroll-Hess integrals:
                    - Parametrization         : EXP
                    - DKH order of Hamiltonian: 2
                    - DKH order of Properties : 0
                         - multipole moment operators
                         - electric potential operators
                         - contact operators
                  Orbital angular momentum around (  1.8897   0.0000   0.0000 )
                  Velocity quadrupole around (  1.8897   0.0000   0.0000 )
                  Atomic mean-field integrals
                  Two-Electron Repulsion integrals
 
                   Integrals are discarded if absolute value <: 1.00E-14
                   Integral cutoff threshold is set to       <: 1.00E-16
 
++    SO/AO info:
      -----------
 
                    **************************************************
                    ********** Petite list Basis Functions ***********
                    **************************************************
 
 
           Basis functions generated by E  
 
 Basis Label        Type   Center
    1  PO1           1s       1
    2  PO1           2s       1
    3  PO1           3s       1
    4  PO1           4s       1
    5  PO1           5s       1
    6  PO1           6s       1
    7  PO1           7s       1
    8  PO1           2px      1
    9  PO1           3px      1
   10  PO1           4px      1
   11  PO1           5px      1
   12  PO1           6px      1
   13  PO1           7px      1
   14  PO1           2py      1
   15  PO1           3py      1
   16  PO1           4py      1
   17  PO1           5py      1
   18  PO1           6py      1
   19  PO1           7py      1
   20  PO1           2pz      1
   21  PO1           3pz      1
   22  PO1           4pz      1
   23  PO1           5pz      1
   24  PO1           6pz      1
   25  PO1           7pz      1
   26  PO1           3d2-     1
   27  PO1           4d2-     1
   28  PO1           5d2-     1
   29  PO1           6d2-     1
   30  PO1           3d1-     1
   31  PO1           4d1-     1
   32  PO1           5d1-     1
   33  PO1           6d1-     1
   34  PO1           3d0      1
   35  PO1           4d0      1
   36  PO1           5d0      1
   37  PO1           6d0      1
   38  PO1           3d1+     1
   39  PO1           4d1+     1
   40  PO1           5d1+     1
   41  PO1           6d1+     1
   42  PO1           3d2+     1
   43  PO1           4d2+     1
   44  PO1           5d2+     1
   45  PO1           6d2+     1
   46  PO1           4f3-     1
   47  PO1           5f3-     1
   48  PO1           4f2-     1
   49  PO1           5f2-     1
   50  PO1           4f1-     1
   51  PO1           5f1-     1
   52  PO1           4f0      1
   53  PO1           5f0      1
   54  PO1           4f1+     1
   55  PO1           5f1+     1
   56  PO1           4f2+     1
   57  PO1           5f2+     1
   58  PO1           4f3+     1
   59  PO1           5f3+     1
   60  PO1           5g4-     1
   61  PO1           5g3-     1
   62  PO1           5g2-     1
   63  PO1           5g1-     1
   64  PO1           5g0      1
   65  PO1           5g1+     1
   66  PO1           5g2+     1
   67  PO1           5g3+     1
   68  PO1           5g4+     1
   69  PO2           1s       2
   70  PO2           2s       2
   71  PO2           3s       2
   72  PO2           4s       2
   73  PO2           5s       2
   74  PO2           6s       2
   75  PO2           7s       2
   76  PO2           2px      2
   77  PO2           3px      2
   78  PO2           4px      2
   79  PO2           5px      2
   80  PO2           6px      2
   81  PO2           7px      2
   82  PO2           2py      2
   83  PO2           3py      2
   84  PO2           4py      2
   85  PO2           5py      2
   86  PO2           6py      2
   87  PO2           7py      2
   88  PO2           2pz      2
   89  PO2           3pz      2
   90  PO2           4pz      2
   91  PO2           5pz      2
   92  PO2           6pz      2
   93  PO2           7pz      2
   94  PO2           3d2-     2
   95  PO2           4d2-     2
   96  PO2           5d2-     2
   97  PO2           6d2-     2
   98  PO2           3d1-     2
   99  PO2           4d1-     2
  100  PO2           5d1-     2
  101  PO2           6d1-     2
  102  PO2           3d0      2
  103  PO2           4d0      2
  104  PO2           5d0      2
  105  PO2           6d0      2
  106  PO2           3d1+     2
  107  PO2           4d1+     2
  108  PO2           5d1+     2
  109  PO2           6d1+     2
  110  PO2           3d2+     2
  111  PO2           4d2+     2
  112  PO2           5d2+     2
  113  PO2           6d2+     2
  114  PO2           4f3-     2
  115  PO2           5f3-     2
  116  PO2           4f2-     2
  117  PO2           5f2-     2
  118  PO2           4f1-     2
  119  PO2           5f1-     2
  120  PO2           4f0      2
  121  PO2           5f0      2
  122  PO2           4f1+     2
  123  PO2           5f1+     2
  124  PO2           4f2+     2
  125  PO2           5f2+     2
  126  PO2           4f3+     2
  127  PO2           5f3+     2
  128  PO2           5g4-     2
  129  PO2           5g3-     2
  130  PO2           5g2-     2
  131  PO2           5g1-     2
  132  PO2           5g0      2
  133  PO2           5g1+     2
  134  PO2           5g2+     2
  135  PO2           5g3+     2
  136  PO2           5g4+     2
 
      Basis set specifications :
      Symmetry species        a  
      Basis functions         136
--
 
 
            Nuclear Potential Energy           1866.93719880 au
 
 
      Basis set specifications :
      Symmetry species         a  
      Basis functions          136
 
  SO-integrals were calculated for Po: [Xe+4f^14+5d^10]6s^2 6p^4 
  SO-integrals were calculated for Po: [Xe+4f^14+5d^10]6s^2 6p^4 
 
  SEWARD will use a sorting area of        8192 Words(Real) in the first phase (=   1 bins).
  SEWARD will use a sorting area of    86787856 Words(Real) in the second phase.
 
 
 Integrals are written in MOLCAS2 format
 Packing accuracy = 0.1000E-13
 Highest disk address written    403012
 Diagonal and subdiagonal, symmetry allowed 2-el integral blocks are stored on Disk
 
Sorted orbital energies
-----------------------
 
Printing  136 out of  136
Filled orbitals:  84.0
 
    1-   10    -3431.5846  -3431.5846   -625.9423   -625.9423   -537.6713   -537.6713   -537.6713   -537.6713   -537.6713   -537.6713
   11-   20     -154.7084   -154.7081   -129.0216   -129.0216   -129.0216   -129.0216   -129.0216   -129.0216   -101.9410   -101.9410
   21-   30     -101.9410   -101.9410   -101.9410   -101.9410   -101.9410   -101.9410   -101.9410   -101.9410    -37.4778    -37.4768
   31-   40      -28.8670    -28.8666    -28.8666    -28.8666    -28.8666    -28.8665    -18.5882    -18.5880    -18.5880    -18.5880
   41-   50      -18.5880    -18.5880    -18.5880    -18.5880    -18.5880    -18.5879     -7.3916     -7.3916     -7.3916     -7.3914
   51-   60       -7.3914     -7.3914     -7.3914     -7.3914     -7.3914     -7.3914     -7.3914     -7.3912     -7.3912     -7.3912
   61-   70       -7.2566     -7.2396     -4.7296     -4.6804     -4.6804     -4.6693     -4.6693     -4.6413     -1.6646     -1.6221
   71-   80       -1.6221     -1.5731     -1.5731     -1.5537     -1.5537     -1.5089     -1.5089     -1.4765     -1.1081     -0.6929
   81-   90       -0.4670     -0.4670     -0.3361     -0.2126     -0.2126     -0.0874      8.2524      8.2524      8.5158      8.5437
   91-  100        9.3696      9.3696      9.3961      9.3961      9.5358      9.5358      9.5482      9.5482      9.6819      9.6819
  101-  110        9.7255      9.7255      9.7743      9.8302      9.8302     10.0215     10.0215     10.0920     10.0920     10.1985
  111-  120       10.2966     10.2966     10.7432     10.7432     10.8009     10.8009     12.1047     12.3614     12.3614     12.9284
  121-  130       13.6258     14.3094     14.3094     14.4324     14.4324     14.6252     14.6252     14.8089     14.8089     15.3665
  131-  136       15.3665     16.1255     17.0209     17.0209     18.5771     24.7300
 
 
++    Molecular orbitals:
      -------------------
 
      Title: Start orbitals (virtuals shifted)

      Molecular orbitals for symmetry species 1: a  
 
          Some orbital energies have been scaled by powers of 10, the power is written right after the orbital index
 
 
          Orbital            1 (1)     2 (1)     3         4         5         6         7         8         9        10    
          Energy         -343.1585 -343.1585 -625.9423 -625.9423 -537.6713 -537.6713 -537.6713 -537.6713 -537.6713 -537.6713
          Occ. No.          2.0000    2.0000    2.0000    2.0000    2.0000    2.0000    2.0000    2.0000    2.0000    2.0000
 
        1 PO1    1s        -0.7071    0.7071    0.0000   -0.0000   -0.0000    0.0000    0.0000    0.0000   -0.0000   -0.0000
        2 PO1    2s        -0.0000   -0.0000   -0.7071    0.7071   -0.0000   -0.0000    0.0000   -0.0000   -0.0000    0.0000
        3 PO1    3s        -0.0000    0.0000    0.0000    0.0000   -0.0000   -0.0000    0.0000    0.0000   -0.0000   -0.0000
        4 PO1    4s         0.0000    0.0000    0.0000    0.0000   -0.0000    0.0000    0.0000    0.0000   -0.0000   -0.0000
        5 PO1    5s         0.0000    0.0000    0.0000    0.0000   -0.0000    0.0000    0.0000    0.0000   -0.0000   -0.0000
        6 PO1    6s         0.0000    0.0000    0.0000    0.0000   -0.0000    0.0000    0.0000    0.0000   -0.0000   -0.0000
        7 PO1    7s        -0.0000   -0.0000    0.0000   -0.0000   -0.0000   -0.0000   -0.0000   -0.0000   -0.0000   -0.0000
        8 PO1    2px       -0.0000   -0.0000    0.0000    0.0000    0.7071    0.0000    0.0000    0.0000    0.0000   -0.7071
        9 PO1    3px       -0.0000   -0.0000   -0.0000    0.0000    0.0000   -0.0000   -0.0000    0.0000    0.0000    0.0000
       10 PO1    4px       -0.0000   -0.0000   -0.0000   -0.0000    0.0000   -0.0000   -0.0000    0.0000    0.0000    0.0000
       11 PO1    5px        0.0000    0.0000    0.0000    0.0000   -0.0000    0.0000    0.0000    0.0000   -0.0000   -0.0000
       12 PO1    6px        0.0000    0.0000    0.0000    0.0000   -0.0000    0.0000    0.0000    0.0000   -0.0000   -0.0000
       13 PO1    7px        0.0000    0.0000    0.0000   -0.0000   -0.0000    0.0000    0.0000    0.0000    0.0000   -0.0000
       14 PO1    2py       -0.0000   -0.0000   -0.0000    0.0000    0.0000    0.6644   -0.2420   -0.6842   -0.1787   -0.0000
       15 PO1    3py       -0.0000   -0.0000   -0.0000   -0.0000    0.0000    0.0000   -0.0000   -0.0000   -0.0000    0.0000
       16 PO1    4py       -0.0000    0.0000    0.0000   -0.0000    0.0000    0.0000   -0.0000   -0.0000   -0.0000    0.0000
       17 PO1    5py       -0.0000   -0.0000   -0.0000   -0.0000   -0.0000    0.0000   -0.0000    0.0000    0.0000   -0.0000
       18 PO1    6py       -0.0000    0.0000    0.0000   -0.0000   -0.0000    0.0000   -0.0000    0.0000    0.0000   -0.0000
       19 PO1    7py       -0.0000   -0.0000    0.0000    0.0000    0.0000   -0.0000    0.0000    0.0000   -0.0000    0.0000
       20 PO1    2pz        0.0000    0.0000    0.0000   -0.0000    0.0000    0.2420    0.6644    0.1787   -0.6842    0.0000
       21 PO1    3pz       -0.0000    0.0000    0.0000    0.0000    0.0000    0.0000    0.0000    0.0000   -0.0000    0.0000
       22 PO1    4pz        0.0000    0.0000   -0.0000    0.0000   -0.0000    0.0000    0.0000    0.0000   -0.0000    0.0000
       23 PO1    5pz       -0.0000    0.0000    0.0000   -0.0000   -0.0000    0.0000    0.0000   -0.0000    0.0000    0.0000
       24 PO1    6pz        0.0000    0.0000   -0.0000   -0.0000   -0.0000    0.0000    0.0000   -0.0000    0.0000    0.0000
       25 PO1    7pz        0.0000   -0.0000    0.0000    0.0000   -0.0000    0.0000   -0.0000   -0.0000   -0.0000   -0.0000
       26 PO1    3d2-      -0.0000    0.0000   -0.0000    0.0000   -0.0000    0.0000   -0.0000    0.0000    0.0000    0.0000
       27 PO1    4d2-       0.0000    0.0000    0.0000    0.0000    0.0000   -0.0000    0.0000   -0.0000   -0.0000    0.0000
       28 PO1    5d2-       0.0000    0.0000    0.0000    0.0000   -0.0000    0.0000   -0.0000    0.0000    0.0000   -0.0000
       29 PO1    6d2-       0.0000    0.0000    0.0000    0.0000    0.0000    0.0000   -0.0000    0.0000   -0.0000    0.0000
       30 PO1    3d1-      -0.0000   -0.0000    0.0000   -0.0000   -0.0000   -0.0000    0.0000    0.0000   -0.0000    0.0000
       31 PO1    4d1-       0.0000    0.0000    0.0000   -0.0000    0.0000    0.0000   -0.0000   -0.0000   -0.0000    0.0000
       32 PO1    5d1-       0.0000   -0.0000    0.0000   -0.0000    0.0000    0.0000   -0.0000    0.0000   -0.0000    0.0000
       33 PO1    6d1-       0.0000    0.0000    0.0000    0.0000    0.0000   -0.0000    0.0000   -0.0000    0.0000    0.0000
       34 PO1    3d0       -0.0000   -0.0000   -0.0000   -0.0000   -0.0000   -0.0000   -0.0000   -0.0000    0.0000   -0.0000
       35 PO1    4d0        0.0000    0.0000    0.0000    0.0000   -0.0000   -0.0000    0.0000   -0.0000    0.0000   -0.0000
       36 PO1    5d0       -0.0000   -0.0000   -0.0000   -0.0000    0.0000   -0.0000   -0.0000   -0.0000    0.0000    0.0000
       37 PO1    6d0       -0.0000   -0.0000   -0.0000    0.0000   -0.0000   -0.0000   -0.0000    0.0000    0.0000    0.0000
       38 PO1    3d1+       0.0000   -0.0000    0.0000    0.0000   -0.0000    0.0000    0.0000   -0.0000    0.0000   -0.0000
       39 PO1    4d1+      -0.0000    0.0000    0.0000    0.0000   -0.0000   -0.0000   -0.0000    0.0000   -0.0000   -0.0000
       40 PO1    5d1+      -0.0000    0.0000    0.0000   -0.0000   -0.0000    0.0000    0.0000   -0.0000    0.0000    0.0000
       41 PO1    6d1+       0.0000    0.0000    0.0000    0.0000   -0.0000    0.0000   -0.0000    0.0000    0.0000    0.0000
       42 PO1    3d2+       0.0000    0.0000    0.0000    0.0000    0.0000    0.0000   -0.0000   -0.0000    0.0000    0.0000
       43 PO1    4d2+      -0.0000   -0.0000   -0.0000   -0.0000    0.0000    0.0000   -0.0000   -0.0000    0.0000    0.0000
       44 PO1    5d2+       0.0000    0.0000    0.0000    0.0000   -0.0000    0.0000    0.0000    0.0000   -0.0000   -0.0000
       45 PO1    6d2+       0.0000    0.0000    0.0000   -0.0000    0.0000   -0.0000    0.0000   -0.0000   -0.0000   -0.0000
       46 PO1    4f3-       0.0000    0.0000   -0.0000   -0.0000   -0.0000    0.0000   -0.0000    0.0000    0.0000   -0.0000
       47 PO1    5f3-       0.0000   -0.0000   -0.0000   -0.0000    0.0000    0.0000    0.0000    0.0000    0.0000    0.0000
       48 PO1    4f2-       0.0000   -0.0000    0.0000   -0.0000    0.0000   -0.0000   -0.0000   -0.0000    0.0000   -0.0000
       49 PO1    5f2-      -0.0000    0.0000    0.0000   -0.0000    0.0000    0.0000   -0.0000   -0.0000    0.0000   -0.0000
       50 PO1    4f1-      -0.0000   -0.0000    0.0000    0.0000    0.0000   -0.0000    0.0000   -0.0000   -0.0000   -0.0000
       51 PO1    5f1-       0.0000    0.0000    0.0000   -0.0000    0.0000    0.0000    0.0000   -0.0000    0.0000    0.0000
       52 PO1    4f0        0.0000    0.0000   -0.0000    0.0000   -0.0000   -0.0000   -0.0000    0.0000   -0.0000   -0.0000
       53 PO1    5f0       -0.0000   -0.0000    0.0000    0.0000    0.0000    0.0000    0.0000    0.0000    0.0000    0.0000
       54 PO1    4f1+      -0.0000   -0.0000   -0.0000   -0.0000    0.0000   -0.0000   -0.0000   -0.0000    0.0000    0.0000
       55 PO1    5f1+      -0.0000    0.0000   -0.0000    0.0000    0.0000    0.0000    0.0000   -0.0000    0.0000    0.0000
       56 PO1    4f2+       0.0000   -0.0000    0.0000   -0.0000   -0.0000    0.0000    0.0000   -0.0000    0.0000   -0.0000
       57 PO1    5f2+       0.0000   -0.0000   -0.0000   -0.0000    0.0000    0.0000    0.0000   -0.0000    0.0000    0.0000
       58 PO1    4f3+       0.0000    0.0000    0.0000    0.0000   -0.0000    0.0000    0.0000    0.0000   -0.0000   -0.0000
       59 PO1    5f3+       0.0000    0.0000   -0.0000   -0.0000   -0.0000   -0.0000   -0.0000   -0.0000    0.0000    0.0000
       60 PO1    5g4-      -0.0000   -0.0000    0.0000    0.0000    0.0000    0.0000   -0.0000   -0.0000   -0.0000   -0.0000
       61 PO1    5g3-       0.0000   -0.0000   -0.0000   -0.0000   -0.0000    0.0000    0.0000   -0.0000   -0.0000   -0.0000
       62 PO1    5g2-      -0.0000   -0.0000    0.0000    0.0000   -0.0000    0.0000   -0.0000    0.0000   -0.0000   -0.0000
       63 PO1    5g1-      -0.0000   -0.0000    0.0000    0.0000    0.0000    0.0000    0.0000    0.0000    0.0000   -0.0000
       64 PO1    5g0       -0.0000   -0.0000    0.0000    0.0000    0.0000   -0.0000   -0.0000   -0.0000   -0.0000   -0.0000
       65 PO1    5g1+      -0.0000    0.0000    0.0000   -0.0000    0.0000   -0.0000    0.0000    0.0000    0.0000    0.0000
       66 PO1    5g2+      -0.0000    0.0000   -0.0000    0.0000    0.0000    0.0000    0.0000   -0.0000    0.0000   -0.0000
       67 PO1    5g3+      -0.0000   -0.0000   -0.0000   -0.0000   -0.0000   -0.0000    0.0000   -0.0000    0.0000    0.0000
       68 PO1    5g4+      -0.0000   -0.0000    0.0000    0.0000   -0.0000   -0.0000   -0.0000   -0.0000   -0.0000   -0.0000
       69 PO2    1s         0.7071    0.7071   -0.0000   -0.0000    0.0000   -0.0000   -0.0000   -0.0000   -0.0000   -0.0000
       70 PO2    2s         0.0000   -0.0000    0.7071    0.7071    0.0000   -0.0000    0.0000   -0.0000    0.0000    0.0000
       71 PO2    3s         0.0000    0.0000   -0.0000    0.0000    0.0000   -0.0000    0.0000    0.0000    0.0000   -0.0000
       72 PO2    4s        -0.0000    0.0000   -0.0000    0.0000    0.0000    0.0000    0.0000    0.0000    0.0000   -0.0000
       73 PO2    5s        -0.0000    0.0000   -0.0000    0.0000    0.0000    0.0000    0.0000    0.0000    0.0000   -0.0000
       74 PO2    6s        -0.0000    0.0000   -0.0000    0.0000    0.0000    0.0000    0.0000    0.0000    0.0000   -0.0000
       75 PO2    7s        -0.0000    0.0000   -0.0000    0.0000    0.0000    0.0000   -0.0000   -0.0000    0.0000    0.0000
       76 PO2    2px       -0.0000    0.0000    0.0000   -0.0000    0.7071   -0.0000   -0.0000   -0.0000    0.0000    0.7071
       77 PO2    3px       -0.0000    0.0000   -0.0000   -0.0000    0.0000    0.0000    0.0000    0.0000    0.0000   -0.0000
       78 PO2    4px       -0.0000    0.0000   -0.0000    0.0000    0.0000    0.0000    0.0000    0.0000    0.0000   -0.0000
       79 PO2    5px        0.0000   -0.0000    0.0000   -0.0000   -0.0000   -0.0000   -0.0000   -0.0000   -0.0000    0.0000
       80 PO2    6px        0.0000   -0.0000    0.0000   -0.0000   -0.0000   -0.0000   -0.0000   -0.0000   -0.0000    0.0000
       81 PO2    7px        0.0000   -0.0000    0.0000    0.0000    0.0000    0.0000    0.0000   -0.0000    0.0000    0.0000
       82 PO2    2py        0.0000   -0.0000   -0.0000    0.0000   -0.0000    0.6644   -0.2420    0.6842    0.1787    0.0000
       83 PO2    3py        0.0000    0.0000   -0.0000    0.0000    0.0000    0.0000   -0.0000    0.0000    0.0000    0.0000
       84 PO2    4py        0.0000    0.0000   -0.0000   -0.0000    0.0000    0.0000   -0.0000    0.0000    0.0000    0.0000
       85 PO2    5py       -0.0000   -0.0000    0.0000    0.0000    0.0000    0.0000   -0.0000   -0.0000   -0.0000   -0.0000
       86 PO2    6py        0.0000    0.0000   -0.0000    0.0000    0.0000    0.0000   -0.0000   -0.0000   -0.0000   -0.0000
       87 PO2    7py        0.0000   -0.0000    0.0000   -0.0000    0.0000    0.0000    0.0000    0.0000    0.0000    0.0000
       88 PO2    2pz        0.0000    0.0000   -0.0000   -0.0000   -0.0000    0.2420    0.6644   -0.1786    0.6842    0.0000
       89 PO2    3pz       -0.0000    0.0000    0.0000   -0.0000   -0.0000    0.0000    0.0000   -0.0000    0.0000   -0.0000
       90 PO2    4pz       -0.0000    0.0000    0.0000    0.0000   -0.0000    0.0000    0.0000   -0.0000    0.0000    0.0000
       91 PO2    5pz        0.0000    0.0000    0.0000    0.0000    0.0000    0.0000    0.0000    0.0000   -0.0000    0.0000
       92 PO2    6pz        0.0000   -0.0000    0.0000    0.0000    0.0000    0.0000    0.0000    0.0000   -0.0000    0.0000
       93 PO2    7pz       -0.0000   -0.0000   -0.0000   -0.0000    0.0000    0.0000    0.0000   -0.0000    0.0000    0.0000
       94 PO2    3d2-       0.0000    0.0000   -0.0000   -0.0000    0.0000   -0.0000    0.0000    0.0000    0.0000    0.0000
       95 PO2    4d2-       0.0000   -0.0000    0.0000    0.0000    0.0000    0.0000   -0.0000   -0.0000   -0.0000    0.0000
       96 PO2    5d2-       0.0000   -0.0000    0.0000   -0.0000   -0.0000   -0.0000    0.0000    0.0000    0.0000    0.0000
       97 PO2    6d2-      -0.0000    0.0000   -0.0000    0.0000    0.0000    0.0000   -0.0000    0.0000   -0.0000    0.0000
       98 PO2    3d1-       0.0000    0.0000   -0.0000   -0.0000   -0.0000    0.0000   -0.0000    0.0000    0.0000   -0.0000
       99 PO2    4d1-      -0.0000   -0.0000   -0.0000   -0.0000   -0.0000    0.0000    0.0000    0.0000   -0.0000   -0.0000
      100 PO2    5d1-       0.0000    0.0000    0.0000   -0.0000   -0.0000   -0.0000    0.0000    0.0000   -0.0000    0.0000
      101 PO2    6d1-      -0.0000    0.0000   -0.0000    0.0000    0.0000    0.0000    0.0000    0.0000   -0.0000   -0.0000
      102 PO2    3d0        0.0000   -0.0000    0.0000   -0.0000    0.0000   -0.0000    0.0000   -0.0000    0.0000   -0.0000
      103 PO2    4d0       -0.0000    0.0000   -0.0000    0.0000    0.0000    0.0000    0.0000    0.0000    0.0000   -0.0000
      104 PO2    5d0        0.0000   -0.0000    0.0000   -0.0000   -0.0000   -0.0000   -0.0000   -0.0000   -0.0000    0.0000
      105 PO2    6d0       -0.0000    0.0000    0.0000    0.0000    0.0000    0.0000    0.0000   -0.0000    0.0000    0.0000
      106 PO2    3d1+       0.0000   -0.0000    0.0000   -0.0000    0.0000   -0.0000   -0.0000   -0.0000    0.0000   -0.0000
      107 PO2    4d1+       0.0000    0.0000    0.0000    0.0000    0.0000    0.0000    0.0000    0.0000   -0.0000    0.0000
      108 PO2    5d1+       0.0000   -0.0000   -0.0000   -0.0000   -0.0000   -0.0000   -0.0000   -0.0000    0.0000   -0.0000
      109 PO2    6d1+      -0.0000   -0.0000   -0.0000   -0.0000    0.0000    0.0000   -0.0000   -0.0000   -0.0000   -0.0000
      110 PO2    3d2+      -0.0000    0.0000   -0.0000    0.0000   -0.0000    0.0000   -0.0000   -0.0000   -0.0000    0.0000
      111 PO2    4d2+       0.0000   -0.0000    0.0000   -0.0000   -0.0000   -0.0000   -0.0000   -0.0000   -0.0000    0.0000
      112 PO2    5d2+      -0.0000    0.0000   -0.0000    0.0000    0.0000    0.0000    0.0000    0.0000    0.0000   -0.0000
      113 PO2    6d2+      -0.0000    0.0000   -0.0000    0.0000    0.0000   -0.0000    0.0000   -0.0000    0.0000   -0.0000
      114 PO2    4f3-       0.0000    0.0000    0.0000    0.0000    0.0000    0.0000   -0.0000   -0.0000   -0.0000   -0.0000
      115 PO2    5f3-       0.0000    0.0000   -0.0000    0.0000   -0.0000    0.0000   -0.0000    0.0000   -0.0000    0.0000
      116 PO2    4f2-      -0.0000    0.0000    0.0000    0.0000   -0.0000    0.0000   -0.0000    0.0000   -0.0000   -0.0000
      117 PO2    5f2-      -0.0000   -0.0000    0.0000   -0.0000   -0.0000   -0.0000    0.0000   -0.0000    0.0000   -0.0000
      118 PO2    4f1-       0.0000    0.0000   -0.0000   -0.0000   -0.0000   -0.0000    0.0000    0.0000    0.0000   -0.0000
      119 PO2    5f1-      -0.0000   -0.0000   -0.0000   -0.0000   -0.0000    0.0000   -0.0000    0.0000    0.0000   -0.0000
      120 PO2    4f0       -0.0000    0.0000    0.0000    0.0000   -0.0000   -0.0000   -0.0000   -0.0000    0.0000    0.0000
      121 PO2    5f0        0.0000   -0.0000   -0.0000   -0.0000   -0.0000    0.0000    0.0000   -0.0000   -0.0000   -0.0000
      122 PO2    4f1+      -0.0000    0.0000   -0.0000    0.0000    0.0000    0.0000    0.0000    0.0000    0.0000   -0.0000
      123 PO2    5f1+      -0.0000   -0.0000   -0.0000    0.0000    0.0000   -0.0000   -0.0000   -0.0000    0.0000    0.0000
      124 PO2    4f2+       0.0000   -0.0000    0.0000   -0.0000   -0.0000    0.0000    0.0000    0.0000   -0.0000   -0.0000
      125 PO2    5f2+      -0.0000    0.0000   -0.0000   -0.0000   -0.0000   -0.0000    0.0000    0.0000    0.0000   -0.0000
      126 PO2    4f3+       0.0000   -0.0000    0.0000   -0.0000   -0.0000   -0.0000   -0.0000   -0.0000   -0.0000    0.0000
      127 PO2    5f3+       0.0000    0.0000    0.0000   -0.0000   -0.0000    0.0000    0.0000   -0.0000    0.0000   -0.0000
      128 PO2    5g4-      -0.0000   -0.0000   -0.0000   -0.0000    0.0000    0.0000   -0.0000   -0.0000   -0.0000    0.0000
      129 PO2    5g3-      -0.0000    0.0000    0.0000    0.0000   -0.0000    0.0000    0.0000    0.0000   -0.0000    0.0000
      130 PO2    5g2-      -0.0000   -0.0000    0.0000   -0.0000   -0.0000    0.0000   -0.0000   -0.0000    0.0000   -0.0000
      131 PO2    5g1-      -0.0000    0.0000    0.0000   -0.0000   -0.0000   -0.0000    0.0000   -0.0000    0.0000    0.0000
      132 PO2    5g0       -0.0000   -0.0000    0.0000    0.0000   -0.0000    0.0000    0.0000   -0.0000   -0.0000   -0.0000
      133 PO2    5g1+      -0.0000    0.0000   -0.0000    0.0000    0.0000   -0.0000   -0.0000    0.0000   -0.0000    0.0000
      134 PO2    5g2+      -0.0000    0.0000    0.0000    0.0000    0.0000   -0.0000   -0.0000    0.0000   -0.0000   -0.0000
      135 PO2    5g3+       0.0000    0.0000   -0.0000   -0.0000   -0.0000    0.0000    0.0000    0.0000   -0.0000   -0.0000
      136 PO2    5g4+       0.0000   -0.0000    0.0000   -0.0000   -0.0000    0.0000   -0.0000   -0.0000   -0.0000   -0.0000
 
          Orbital           11        12        13        14        15        16        17        18        19        20    
          Energy         -154.7084 -154.7081 -129.0216 -129.0216 -129.0216 -129.0216 -129.0216 -129.0216 -101.9410 -101.9410
          Occ. No.          2.0000    2.0000    2.0000    2.0000    2.0000    2.0000    2.0000    2.0000    2.0000    2.0000
 
        1 PO1    1s        -0.0000    0.0000   -0.0000   -0.0000   -0.0000    0.0000   -0.0000    0.0000   -0.0000    0.0000
        2 PO1    2s        -0.0000    0.0000   -0.0000    0.0000    0.0000    0.0000   -0.0000    0.0000   -0.0000   -0.0000
        3 PO1    3s         0.7071   -0.7071   -0.0000    0.0000    0.0000    0.0000   -0.0000    0.0000   -0.0000   -0.0000
        4 PO1    4s         0.0000    0.0000   -0.0000   -0.0000   -0.0000   -0.0000    0.0000   -0.0000    0.0000    0.0000
        5 PO1    5s         0.0000    0.0000   -0.0000   -0.0000   -0.0000   -0.0000   -0.0000   -0.0000    0.0000    0.0000
        6 PO1    6s         0.0000    0.0000   -0.0000   -0.0000   -0.0000   -0.0000   -0.0000   -0.0000    0.0000    0.0000
        7 PO1    7s        -0.0000    0.0000    0.0000   -0.0000    0.0000    0.0000   -0.0000    0.0000    0.0000    0.0000
        8 PO1    2px       -0.0000   -0.0000   -0.0000    0.0000   -0.0000    0.0000   -0.0000   -0.0000    0.0000    0.0000
        9 PO1    3px        0.0000   -0.0000    0.7071   -0.0000    0.0000   -0.0000    0.0000   -0.7071    0.0000    0.0000
       10 PO1    4px        0.0000   -0.0000    0.0000    0.0000    0.0000    0.0000    0.0000    0.0000   -0.0000   -0.0000
       11 PO1    5px        0.0000    0.0000   -0.0000   -0.0000   -0.0000   -0.0000   -0.0000   -0.0000    0.0000    0.0000
       12 PO1    6px        0.0000    0.0000   -0.0000   -0.0000   -0.0000   -0.0000   -0.0000   -0.0000    0.0000    0.0000
       13 PO1    7px       -0.0000    0.0000   -0.0000    0.0000   -0.0000   -0.0000    0.0000    0.0000   -0.0000   -0.0000
       14 PO1    2py        0.0000    0.0000    0.0000   -0.0000    0.0000    0.0000    0.0000   -0.0000    0.0000   -0.0000
       15 PO1    3py        0.0000    0.0000    0.0000    0.6695   -0.2274   -0.5395   -0.4571    0.0000   -0.0000   -0.0000
       16 PO1    4py       -0.0000   -0.0000   -0.0000    0.0000   -0.0000   -0.0000   -0.0000   -0.0000    0.0000    0.0000
       17 PO1    5py        0.0000    0.0000    0.0000    0.0000   -0.0000    0.0000    0.0000   -0.0000    0.0000    0.0000
       18 PO1    6py        0.0000    0.0000    0.0000    0.0000   -0.0000    0.0000    0.0000   -0.0000    0.0000    0.0000
       19 PO1    7py        0.0000    0.0000    0.0000    0.0000   -0.0000    0.0000    0.0000    0.0000    0.0000   -0.0000
       20 PO1    2pz        0.0000    0.0000    0.0000   -0.0000   -0.0000   -0.0000    0.0000    0.0000    0.0000    0.0000
       21 PO1    3pz        0.0000   -0.0000   -0.0000    0.2274    0.6695    0.4571   -0.5395   -0.0000   -0.0000    0.0000
       22 PO1    4pz        0.0000    0.0000    0.0000    0.0000    0.0000    0.0000   -0.0000   -0.0000    0.0000   -0.0000
       23 PO1    5pz       -0.0000   -0.0000   -0.0000    0.0000    0.0000   -0.0000    0.0000   -0.0000    0.0000   -0.0000
       24 PO1    6pz        0.0000    0.0000   -0.0000    0.0000    0.0000   -0.0000    0.0000   -0.0000    0.0000   -0.0000
       25 PO1    7pz       -0.0000    0.0000   -0.0000    0.0000   -0.0000   -0.0000   -0.0000   -0.0000   -0.0000    0.0000
       26 PO1    3d2-       0.0000   -0.0000    0.0000    0.0000   -0.0000    0.0000    0.0000   -0.0000   -0.0000   -0.5301
       27 PO1    4d2-      -0.0000    0.0000    0.0000   -0.0000    0.0000   -0.0000   -0.0000   -0.0000   -0.0000   -0.0000
       28 PO1    5d2-      -0.0000   -0.0000    0.0000    0.0000   -0.0000    0.0000    0.0000   -0.0000    0.0000    0.0000
       29 PO1    6d2-       0.0000    0.0000    0.0000   -0.0000   -0.0000   -0.0000   -0.0000    0.0000   -0.0000   -0.0000
       30 PO1    3d1-      -0.0000    0.0000   -0.0000   -0.0000   -0.0000   -0.0000    0.0000    0.0000    0.0000   -0.0000
       31 PO1    4d1-      -0.0000    0.0000    0.0000    0.0000   -0.0000   -0.0000   -0.0000    0.0000    0.0000   -0.0000
       32 PO1    5d1-      -0.0000    0.0000   -0.0000    0.0000    0.0000   -0.0000   -0.0000   -0.0000   -0.0000   -0.0000
       33 PO1    6d1-       0.0000    0.0000   -0.0000   -0.0000    0.0000   -0.0000    0.0000    0.0000    0.0000   -0.0000
       34 PO1    3d0       -0.0000   -0.0000   -0.0000   -0.0000   -0.0000   -0.0000    0.0000   -0.0000    0.3536   -0.0000
       35 PO1    4d0        0.0000    0.0000    0.0000    0.0000    0.0000   -0.0000    0.0000    0.0000    0.0000    0.0000
       36 PO1    5d0       -0.0000   -0.0000    0.0000    0.0000    0.0000    0.0000    0.0000    0.0000   -0.0000   -0.0000
       37 PO1    6d0        0.0000   -0.0000    0.0000   -0.0000    0.0000    0.0000   -0.0000   -0.0000   -0.0000    0.0000
       38 PO1    3d1+      -0.0000    0.0000   -0.0000    0.0000    0.0000   -0.0000    0.0000    0.0000    0.0000    0.4680
       39 PO1    4d1+      -0.0000   -0.0000    0.0000   -0.0000   -0.0000    0.0000   -0.0000   -0.0000    0.0000    0.0000
       40 PO1    5d1+       0.0000   -0.0000   -0.0000    0.0000    0.0000   -0.0000    0.0000   -0.0000    0.0000   -0.0000
       41 PO1    6d1+       0.0000    0.0000   -0.0000   -0.0000    0.0000   -0.0000   -0.0000   -0.0000   -0.0000    0.0000
       42 PO1    3d2+       0.0000    0.0000    0.0000   -0.0000    0.0000   -0.0000    0.0000    0.0000   -0.6124   -0.0000
       43 PO1    4d2+      -0.0000   -0.0000   -0.0000   -0.0000   -0.0000    0.0000   -0.0000   -0.0000   -0.0000    0.0000
       44 PO1    5d2+       0.0000    0.0000   -0.0000   -0.0000   -0.0000   -0.0000   -0.0000   -0.0000    0.0000   -0.0000
       45 PO1    6d2+      -0.0000    0.0000   -0.0000   -0.0000    0.0000   -0.0000    0.0000    0.0000   -0.0000    0.0000
       46 PO1    4f3-       0.0000    0.0000    0.0000    0.0000   -0.0000    0.0000    0.0000   -0.0000    0.0000    0.0000
       47 PO1    5f3-       0.0000   -0.0000    0.0000   -0.0000   -0.0000   -0.0000    0.0000   -0.0000    0.0000   -0.0000
       48 PO1    4f2-      -0.0000    0.0000   -0.0000    0.0000   -0.0000   -0.0000   -0.0000    0.0000   -0.0000   -0.0000
       49 PO1    5f2-       0.0000    0.0000    0.0000   -0.0000    0.0000    0.0000    0.0000    0.0000   -0.0000   -0.0000
       50 PO1    4f1-       0.0000    0.0000   -0.0000   -0.0000    0.0000   -0.0000   -0.0000    0.0000   -0.0000   -0.0000
       51 PO1    5f1-       0.0000    0.0000    0.0000    0.0000    0.0000    0.0000    0.0000   -0.0000    0.0000    0.0000
       52 PO1    4f0        0.0000   -0.0000    0.0000   -0.0000   -0.0000    0.0000   -0.0000   -0.0000    0.0000    0.0000
       53 PO1    5f0       -0.0000   -0.0000    0.0000   -0.0000    0.0000   -0.0000   -0.0000   -0.0000    0.0000   -0.0000
       54 PO1    4f1+      -0.0000   -0.0000    0.0000    0.0000    0.0000   -0.0000   -0.0000    0.0000   -0.0000   -0.0000
       55 PO1    5f1+       0.0000   -0.0000   -0.0000    0.0000   -0.0000   -0.0000    0.0000   -0.0000   -0.0000   -0.0000
       56 PO1    4f2+      -0.0000    0.0000    0.0000    0.0000    0.0000   -0.0000    0.0000   -0.0000    0.0000   -0.0000
       57 PO1    5f2+       0.0000    0.0000    0.0000    0.0000    0.0000    0.0000    0.0000   -0.0000   -0.0000    0.0000
       58 PO1    4f3+       0.0000    0.0000   -0.0000   -0.0000   -0.0000   -0.0000   -0.0000   -0.0000    0.0000   -0.0000
       59 PO1    5f3+      -0.0000   -0.0000   -0.0000    0.0000    0.0000    0.0000    0.0000    0.0000    0.0000   -0.0000
       60 PO1    5g4-      -0.0000   -0.0000    0.0000   -0.0000    0.0000   -0.0000    0.0000    0.0000    0.0000   -0.0000
       61 PO1    5g3-      -0.0000   -0.0000    0.0000   -0.0000   -0.0000    0.0000   -0.0000   -0.0000    0.0000    0.0000
       62 PO1    5g2-       0.0000    0.0000   -0.0000   -0.0000    0.0000   -0.0000    0.0000   -0.0000   -0.0000    0.0000
       63 PO1    5g1-       0.0000    0.0000   -0.0000   -0.0000    0.0000   -0.0000    0.0000    0.0000   -0.0000   -0.0000
       64 PO1    5g0        0.0000    0.0000   -0.0000    0.0000    0.0000    0.0000    0.0000   -0.0000    0.0000    0.0000
       65 PO1    5g1+       0.0000   -0.0000    0.0000    0.0000   -0.0000   -0.0000    0.0000   -0.0000    0.0000   -0.0000
       66 PO1    5g2+       0.0000   -0.0000    0.0000    0.0000   -0.0000   -0.0000    0.0000    0.0000   -0.0000   -0.0000
       67 PO1    5g3+       0.0000   -0.0000    0.0000    0.0000    0.0000   -0.0000    0.0000   -0.0000   -0.0000    0.0000
       68 PO1    5g4+       0.0000    0.0000    0.0000   -0.0000   -0.0000    0.0000    0.0000   -0.0000    0.0000    0.0000
       69 PO2    1s        -0.0000   -0.0000    0.0000    0.0000    0.0000   -0.0000    0.0000    0.0000    0.0000   -0.0000
       70 PO2    2s        -0.0000   -0.0000    0.0000    0.0000    0.0000   -0.0000    0.0000    0.0000    0.0000   -0.0000
       71 PO2    3s         0.7071    0.7071    0.0000    0.0000    0.0000    0.0000   -0.0000    0.0000    0.0000   -0.0000
       72 PO2    4s         0.0000   -0.0000    0.0000   -0.0000   -0.0000   -0.0000    0.0000   -0.0000   -0.0000    0.0000
       73 PO2    5s         0.0000   -0.0000    0.0000   -0.0000   -0.0000   -0.0000    0.0000   -0.0000   -0.0000    0.0000
       74 PO2    6s         0.0000   -0.0000    0.0000   -0.0000    0.0000   -0.0000    0.0000   -0.0000   -0.0000    0.0000
       75 PO2    7s         0.0000   -0.0000    0.0000    0.0000   -0.0000    0.0000    0.0000   -0.0000    0.0000    0.0000
       76 PO2    2px        0.0000   -0.0000   -0.0000    0.0000    0.0000    0.0000    0.0000    0.0000    0.0000    0.0000
       77 PO2    3px       -0.0000   -0.0000    0.7071    0.0000    0.0000    0.0000    0.0000    0.7071    0.0000   -0.0000
       78 PO2    4px       -0.0000   -0.0000    0.0000   -0.0000    0.0000   -0.0000    0.0000   -0.0000   -0.0000    0.0000
       79 PO2    5px       -0.0000    0.0000   -0.0000    0.0000   -0.0000    0.0000   -0.0000    0.0000    0.0000   -0.0000
       80 PO2    6px       -0.0000    0.0000   -0.0000    0.0000   -0.0000    0.0000   -0.0000    0.0000    0.0000   -0.0000
       81 PO2    7px       -0.0000    0.0000   -0.0000    0.0000   -0.0000    0.0000    0.0000   -0.0000    0.0000    0.0000
       82 PO2    2py        0.0000    0.0000   -0.0000   -0.0000    0.0000   -0.0000   -0.0000    0.0000   -0.0000    0.0000
       83 PO2    3py       -0.0000    0.0000    0.0000    0.6695   -0.2274    0.5395    0.4571   -0.0000    0.0000    0.0000
       84 PO2    4py       -0.0000   -0.0000    0.0000    0.0000   -0.0000    0.0000    0.0000   -0.0000   -0.0000   -0.0000
       85 PO2    5py       -0.0000    0.0000    0.0000    0.0000   -0.0000   -0.0000   -0.0000    0.0000   -0.0000   -0.0000
       86 PO2    6py       -0.0000   -0.0000    0.0000    0.0000   -0.0000   -0.0000   -0.0000    0.0000   -0.0000   -0.0000
       87 PO2    7py       -0.0000   -0.0000    0.0000   -0.0000    0.0000    0.0000    0.0000    0.0000   -0.0000   -0.0000
       88 PO2    2pz        0.0000   -0.0000    0.0000   -0.0000   -0.0000    0.0000   -0.0000   -0.0000    0.0000   -0.0000
       89 PO2    3pz        0.0000   -0.0000   -0.0000    0.2274    0.6695   -0.4571    0.5395   -0.0000    0.0000   -0.0000
       90 PO2    4pz       -0.0000   -0.0000    0.0000    0.0000    0.0000   -0.0000    0.0000   -0.0000   -0.0000    0.0000
       91 PO2    5pz       -0.0000    0.0000   -0.0000    0.0000    0.0000    0.0000   -0.0000   -0.0000   -0.0000    0.0000
       92 PO2    6pz       -0.0000   -0.0000   -0.0000    0.0000    0.0000    0.0000   -0.0000   -0.0000    0.0000    0.0000
       93 PO2    7pz       -0.0000   -0.0000   -0.0000    0.0000    0.0000   -0.0000    0.0000   -0.0000   -0.0000   -0.0000
       94 PO2    3d2-       0.0000    0.0000    0.0000   -0.0000    0.0000    0.0000    0.0000   -0.0000    0.0000   -0.5301
       95 PO2    4d2-       0.0000   -0.0000   -0.0000    0.0000   -0.0000   -0.0000   -0.0000    0.0000    0.0000   -0.0000
       96 PO2    5d2-      -0.0000    0.0000   -0.0000   -0.0000    0.0000    0.0000    0.0000   -0.0000    0.0000    0.0000
       97 PO2    6d2-       0.0000   -0.0000    0.0000   -0.0000    0.0000   -0.0000   -0.0000   -0.0000    0.0000   -0.0000
       98 PO2    3d1-       0.0000    0.0000    0.0000    0.0000    0.0000   -0.0000    0.0000   -0.0000    0.0000   -0.0000
       99 PO2    4d1-       0.0000   -0.0000    0.0000    0.0000    0.0000   -0.0000   -0.0000    0.0000    0.0000   -0.0000
      100 PO2    5d1-       0.0000    0.0000   -0.0000    0.0000   -0.0000    0.0000   -0.0000   -0.0000   -0.0000   -0.0000
      101 PO2    6d1-      -0.0000   -0.0000    0.0000    0.0000   -0.0000   -0.0000   -0.0000    0.0000   -0.0000   -0.0000
      102 PO2    3d0       -0.0000    0.0000    0.0000    0.0000   -0.0000   -0.0000    0.0000   -0.0000   -0.3536   -0.0000
      103 PO2    4d0        0.0000   -0.0000   -0.0000   -0.0000    0.0000    0.0000   -0.0000    0.0000   -0.0000   -0.0000
      104 PO2    5d0       -0.0000    0.0000   -0.0000    0.0000   -0.0000    0.0000   -0.0000    0.0000    0.0000   -0.0000
      105 PO2    6d0       -0.0000    0.0000   -0.0000   -0.0000    0.0000    0.0000    0.0000   -0.0000    0.0000    0.0000
      106 PO2    3d1+       0.0000   -0.0000   -0.0000   -0.0000   -0.0000   -0.0000    0.0000    0.0000   -0.0000    0.4680
      107 PO2    4d1+      -0.0000   -0.0000   -0.0000    0.0000    0.0000    0.0000   -0.0000   -0.0000   -0.0000    0.0000
      108 PO2    5d1+      -0.0000    0.0000    0.0000   -0.0000   -0.0000   -0.0000    0.0000    0.0000   -0.0000   -0.0000
      109 PO2    6d1+       0.0000    0.0000    0.0000   -0.0000    0.0000    0.0000    0.0000   -0.0000    0.0000    0.0000
      110 PO2    3d2+       0.0000   -0.0000   -0.0000    0.0000   -0.0000    0.0000   -0.0000    0.0000    0.6124   -0.0000
      111 PO2    4d2+      -0.0000    0.0000    0.0000   -0.0000    0.0000   -0.0000    0.0000   -0.0000    0.0000   -0.0000
      112 PO2    5d2+       0.0000   -0.0000    0.0000   -0.0000    0.0000   -0.0000    0.0000   -0.0000   -0.0000   -0.0000
      113 PO2    6d2+       0.0000   -0.0000    0.0000   -0.0000   -0.0000   -0.0000    0.0000   -0.0000   -0.0000    0.0000
      114 PO2    4f3-       0.0000    0.0000    0.0000    0.0000   -0.0000   -0.0000   -0.0000   -0.0000    0.0000   -0.0000
      115 PO2    5f3-       0.0000   -0.0000   -0.0000    0.0000    0.0000   -0.0000   -0.0000   -0.0000   -0.0000   -0.0000
      116 PO2    4f2-       0.0000    0.0000   -0.0000    0.0000   -0.0000    0.0000    0.0000    0.0000    0.0000    0.0000
      117 PO2    5f2-       0.0000    0.0000    0.0000   -0.0000    0.0000   -0.0000    0.0000    0.0000   -0.0000   -0.0000
      118 PO2    4f1-       0.0000   -0.0000    0.0000   -0.0000    0.0000    0.0000    0.0000   -0.0000    0.0000    0.0000
      119 PO2    5f1-      -0.0000    0.0000    0.0000   -0.0000    0.0000    0.0000    0.0000    0.0000    0.0000   -0.0000
      120 PO2    4f0        0.0000    0.0000   -0.0000   -0.0000   -0.0000   -0.0000    0.0000    0.0000    0.0000   -0.0000
      121 PO2    5f0        0.0000    0.0000    0.0000    0.0000    0.0000   -0.0000    0.0000    0.0000   -0.0000   -0.0000
      122 PO2    4f1+       0.0000   -0.0000    0.0000   -0.0000    0.0000   -0.0000    0.0000   -0.0000   -0.0000    0.0000
      123 PO2    5f1+       0.0000   -0.0000    0.0000   -0.0000    0.0000    0.0000    0.0000   -0.0000    0.0000    0.0000
      124 PO2    4f2+       0.0000    0.0000   -0.0000    0.0000    0.0000    0.0000   -0.0000    0.0000    0.0000    0.0000
      125 PO2    5f2+       0.0000    0.0000    0.0000   -0.0000   -0.0000    0.0000   -0.0000   -0.0000   -0.0000    0.0000
      126 PO2    4f3+      -0.0000    0.0000   -0.0000    0.0000   -0.0000    0.0000   -0.0000    0.0000    0.0000    0.0000
      127 PO2    5f3+      -0.0000    0.0000   -0.0000   -0.0000   -0.0000   -0.0000    0.0000    0.0000   -0.0000   -0.0000
      128 PO2    5g4-       0.0000    0.0000    0.0000   -0.0000   -0.0000    0.0000   -0.0000    0.0000   -0.0000   -0.0000
      129 PO2    5g3-      -0.0000   -0.0000    0.0000   -0.0000   -0.0000    0.0000    0.0000    0.0000   -0.0000   -0.0000
      130 PO2    5g2-      -0.0000    0.0000    0.0000    0.0000    0.0000    0.0000    0.0000    0.0000   -0.0000    0.0000
      131 PO2    5g1-      -0.0000   -0.0000   -0.0000    0.0000   -0.0000    0.0000    0.0000   -0.0000   -0.0000    0.0000
      132 PO2    5g0        0.0000    0.0000    0.0000    0.0000    0.0000   -0.0000   -0.0000   -0.0000   -0.0000   -0.0000
      133 PO2    5g1+      -0.0000   -0.0000    0.0000    0.0000   -0.0000   -0.0000    0.0000    0.0000   -0.0000   -0.0000
      134 PO2    5g2+       0.0000   -0.0000   -0.0000    0.0000   -0.0000   -0.0000   -0.0000   -0.0000    0.0000    0.0000
      135 PO2    5g3+       0.0000   -0.0000    0.0000   -0.0000    0.0000    0.0000   -0.0000   -0.0000    0.0000   -0.0000
      136 PO2    5g4+      -0.0000    0.0000   -0.0000   -0.0000   -0.0000    0.0000   -0.0000    0.0000    0.0000    0.0000
 
          Orbital           21        22        23        24        25        26        27        28        29        30    
          Energy         -101.9410 -101.9410 -101.9410 -101.9410 -101.9410 -101.9410 -101.9410 -101.9410  -37.4778  -37.4768
          Occ. No.          2.0000    2.0000    2.0000    2.0000    2.0000    2.0000    2.0000    2.0000    2.0000    2.0000
 
        1 PO1    1s         0.0000   -0.0000   -0.0000    0.0000    0.0000   -0.0000    0.0000   -0.0000   -0.0000    0.0000
        2 PO1    2s        -0.0000   -0.0000   -0.0000    0.0000    0.0000   -0.0000    0.0000   -0.0000   -0.0000    0.0000
        3 PO1    3s        -0.0000   -0.0000   -0.0000    0.0000    0.0000   -0.0000    0.0000   -0.0000   -0.0000    0.0000
        4 PO1    4s         0.0000    0.0000    0.0000   -0.0000   -0.0000    0.0000   -0.0000    0.0000    0.7071   -0.7071
        5 PO1    5s         0.0000    0.0000    0.0000   -0.0000   -0.0000    0.0000   -0.0000    0.0000    0.0000   -0.0000
        6 PO1    6s         0.0000    0.0000    0.0000   -0.0000   -0.0000    0.0000   -0.0000    0.0000    0.0003    0.0003
        7 PO1    7s         0.0000    0.0000    0.0000    0.0000   -0.0000    0.0000   -0.0000    0.0000   -0.0000    0.0000
        8 PO1    2px       -0.0000    0.0000    0.0000   -0.0000   -0.0000   -0.0000   -0.0000    0.0000   -0.0000    0.0000
        9 PO1    3px        0.0000    0.0000    0.0000   -0.0000   -0.0000    0.0000   -0.0000    0.0000   -0.0000    0.0000
       10 PO1    4px       -0.0000   -0.0000   -0.0000    0.0000    0.0000   -0.0000    0.0000   -0.0000    0.0000   -0.0000
       11 PO1    5px        0.0000    0.0000    0.0000   -0.0000   -0.0000    0.0000   -0.0000    0.0000    0.0001    0.0000
       12 PO1    6px        0.0000    0.0000    0.0000   -0.0000   -0.0000    0.0000   -0.0000    0.0000    0.0004    0.0004
       13 PO1    7px       -0.0000   -0.0000   -0.0000   -0.0000    0.0000   -0.0000   -0.0000   -0.0000   -0.0000    0.0000
       14 PO1    2py        0.0000   -0.0000   -0.0000   -0.0000   -0.0000    0.0000    0.0000   -0.0000    0.0000    0.0000
       15 PO1    3py        0.0000    0.0000   -0.0000    0.0000   -0.0000    0.0000    0.0000    0.0000    0.0000   -0.0000
       16 PO1    4py       -0.0000   -0.0000    0.0000   -0.0000    0.0000   -0.0000   -0.0000   -0.0000    0.0000   -0.0000
       17 PO1    5py       -0.0000   -0.0000    0.0000   -0.0000    0.0000   -0.0000   -0.0000   -0.0000   -0.0000   -0.0000
       18 PO1    6py       -0.0000   -0.0000    0.0000   -0.0000    0.0000   -0.0000   -0.0000   -0.0000    0.0000   -0.0000
       19 PO1    7py       -0.0000   -0.0000   -0.0000   -0.0000   -0.0000   -0.0000    0.0000   -0.0000    0.0000   -0.0000
       20 PO1    2pz        0.0000    0.0000   -0.0000   -0.0000   -0.0000    0.0000   -0.0000   -0.0000   -0.0000    0.0000
       21 PO1    3pz        0.0000    0.0000   -0.0000   -0.0000   -0.0000    0.0000   -0.0000    0.0000    0.0000   -0.0000
       22 PO1    4pz       -0.0000   -0.0000    0.0000    0.0000    0.0000   -0.0000    0.0000   -0.0000   -0.0000   -0.0000
       23 PO1    5pz       -0.0000   -0.0000    0.0000    0.0000    0.0000   -0.0000    0.0000    0.0000    0.0000   -0.0000
       24 PO1    6pz       -0.0000   -0.0000    0.0000    0.0000    0.0000   -0.0000    0.0000    0.0000    0.0000   -0.0000
       25 PO1    7pz        0.0000    0.0000    0.0000    0.0000    0.0000    0.0000    0.0000    0.0000    0.0000    0.0000
       26 PO1    3d2-       0.4680    0.0000   -0.0000   -0.0000    0.0000   -0.4145   -0.5729    0.0000   -0.0000    0.0000
       27 PO1    4d2-       0.0000    0.0000   -0.0000    0.0000   -0.0000    0.0000    0.0000    0.0000    0.0000    0.0000
       28 PO1    5d2-      -0.0000   -0.0000    0.0000   -0.0000    0.0000   -0.0000   -0.0000   -0.0000    0.0000    0.0000
       29 PO1    6d2-      -0.0000    0.0000    0.0000   -0.0000   -0.0000   -0.0000    0.0000    0.0000    0.0000    0.0000
       30 PO1    3d1-       0.0000   -0.2795    0.6495   -0.7053    0.0501   -0.0000    0.0000    0.0000    0.0000   -0.0000
       31 PO1    4d1-       0.0000    0.0000   -0.0000    0.0000   -0.0000    0.0000   -0.0000    0.0000    0.0000    0.0000
       32 PO1    5d1-       0.0000   -0.0000    0.0000    0.0000   -0.0000    0.0000   -0.0000    0.0000    0.0000   -0.0000
       33 PO1    6d1-      -0.0000   -0.0000   -0.0000   -0.0000    0.0000    0.0000   -0.0000    0.0000    0.0000    0.0000
       34 PO1    3d0       -0.0000    0.5625    0.2420   -0.0434   -0.6108   -0.0000    0.0000   -0.3536    0.0000    0.0000
       35 PO1    4d0        0.0000   -0.0000   -0.0000    0.0000    0.0000    0.0000    0.0000    0.0000    0.0000    0.0000
       36 PO1    5d0       -0.0000    0.0000    0.0000    0.0000    0.0000   -0.0000    0.0000   -0.0000   -0.0001   -0.0001
       37 PO1    6d0        0.0000    0.0000    0.0000    0.0000    0.0000    0.0000    0.0000   -0.0000    0.0000   -0.0000
       38 PO1    3d1+       0.5301    0.0000   -0.0000    0.0000   -0.0000   -0.5729    0.4145   -0.0000   -0.0000    0.0000
       39 PO1    4d1+       0.0000    0.0000   -0.0000   -0.0000   -0.0000    0.0000   -0.0000    0.0000    0.0000   -0.0000
       40 PO1    5d1+      -0.0000   -0.0000    0.0000    0.0000    0.0000   -0.0000    0.0000    0.0000    0.0000   -0.0000
       41 PO1    6d1+       0.0000    0.0000   -0.0000   -0.0000    0.0000    0.0000   -0.0000   -0.0000    0.0000    0.0000
       42 PO1    3d2+      -0.0000    0.3248    0.1397   -0.0251   -0.3527   -0.0000    0.0000    0.6124   -0.0000   -0.0000
       43 PO1    4d2+       0.0000   -0.0000   -0.0000    0.0000    0.0000    0.0000    0.0000   -0.0000   -0.0000   -0.0000
       44 PO1    5d2+       0.0000    0.0000    0.0000    0.0000    0.0000    0.0000   -0.0000    0.0000    0.0001    0.0001
       45 PO1    6d2+      -0.0000    0.0000   -0.0000   -0.0000   -0.0000    0.0000   -0.0000    0.0000   -0.0000    0.0000
       46 PO1    4f3-      -0.0000   -0.0000    0.0000   -0.0000    0.0000   -0.0000   -0.0000    0.0000   -0.0000   -0.0000
       47 PO1    5f3-      -0.0000    0.0000   -0.0000    0.0000    0.0000   -0.0000   -0.0000   -0.0000   -0.0000   -0.0000
       48 PO1    4f2-       0.0000   -0.0000    0.0000    0.0000   -0.0000    0.0000   -0.0000   -0.0000    0.0000   -0.0000
       49 PO1    5f2-       0.0000   -0.0000    0.0000   -0.0000   -0.0000    0.0000   -0.0000   -0.0000   -0.0000   -0.0000
       50 PO1    4f1-       0.0000    0.0000   -0.0000    0.0000    0.0000    0.0000    0.0000   -0.0000    0.0000    0.0000
       51 PO1    5f1-      -0.0000    0.0000   -0.0000    0.0000   -0.0000   -0.0000    0.0000   -0.0000   -0.0000   -0.0000
       52 PO1    4f0        0.0000    0.0000   -0.0000   -0.0000   -0.0000    0.0000   -0.0000   -0.0000   -0.0000   -0.0000
       53 PO1    5f0       -0.0000    0.0000   -0.0000   -0.0000   -0.0000   -0.0000   -0.0000   -0.0000   -0.0000   -0.0000
       54 PO1    4f1+      -0.0000    0.0000    0.0000    0.0000    0.0000    0.0000    0.0000   -0.0000   -0.0000   -0.0000
       55 PO1    5f1+       0.0000    0.0000   -0.0000    0.0000   -0.0000    0.0000    0.0000    0.0000    0.0000    0.0000
       56 PO1    4f2+      -0.0000   -0.0000    0.0000    0.0000   -0.0000   -0.0000    0.0000    0.0000   -0.0000    0.0000
       57 PO1    5f2+      -0.0000    0.0000   -0.0000   -0.0000   -0.0000   -0.0000   -0.0000    0.0000   -0.0000   -0.0000
       58 PO1    4f3+      -0.0000    0.0000    0.0000    0.0000    0.0000    0.0000   -0.0000    0.0000    0.0000    0.0000
       59 PO1    5f3+       0.0000    0.0000   -0.0000   -0.0000   -0.0000   -0.0000    0.0000    0.0000   -0.0000   -0.0000
       60 PO1    5g4-      -0.0000   -0.0000    0.0000    0.0000   -0.0000   -0.0000    0.0000   -0.0000   -0.0000    0.0000
       61 PO1    5g3-       0.0000   -0.0000    0.0000   -0.0000   -0.0000    0.0000   -0.0000   -0.0000    0.0000   -0.0000
       62 PO1    5g2-       0.0000    0.0000    0.0000   -0.0000   -0.0000   -0.0000   -0.0000    0.0000   -0.0000   -0.0000
       63 PO1    5g1-      -0.0000   -0.0000    0.0000   -0.0000   -0.0000    0.0000    0.0000    0.0000    0.0000    0.0000
       64 PO1    5g0       -0.0000    0.0000   -0.0000    0.0000   -0.0000    0.0000    0.0000    0.0000    0.0000    0.0000
       65 PO1    5g1+       0.0000   -0.0000    0.0000    0.0000    0.0000    0.0000    0.0000    0.0000    0.0000   -0.0000
       66 PO1    5g2+      -0.0000   -0.0000   -0.0000    0.0000   -0.0000   -0.0000   -0.0000   -0.0000    0.0000   -0.0000
       67 PO1    5g3+      -0.0000   -0.0000   -0.0000   -0.0000    0.0000   -0.0000   -0.0000   -0.0000    0.0000    0.0000
       68 PO1    5g4+       0.0000   -0.0000    0.0000   -0.0000    0.0000   -0.0000   -0.0000   -0.0000    0.0000    0.0000
       69 PO2    1s         0.0000   -0.0000   -0.0000    0.0000    0.0000   -0.0000   -0.0000   -0.0000   -0.0000   -0.0000
       70 PO2    2s         0.0000   -0.0000   -0.0000    0.0000    0.0000   -0.0000   -0.0000   -0.0000   -0.0000   -0.0000
       71 PO2    3s         0.0000   -0.0000   -0.0000    0.0000    0.0000   -0.0000   -0.0000   -0.0000   -0.0000   -0.0000
       72 PO2    4s        -0.0000    0.0000    0.0000   -0.0000   -0.0000   -0.0000    0.0000    0.0000    0.7071    0.7071
       73 PO2    5s         0.0000    0.0000    0.0000   -0.0000   -0.0000   -0.0000    0.0000    0.0000    0.0000    0.0000
       74 PO2    6s        -0.0000    0.0000    0.0000   -0.0000   -0.0000   -0.0000    0.0000    0.0000    0.0003   -0.0003
       75 PO2    7s         0.0000    0.0000    0.0000    0.0000    0.0000   -0.0000    0.0000    0.0000    0.0000   -0.0000
       76 PO2    2px        0.0000   -0.0000   -0.0000    0.0000    0.0000   -0.0000   -0.0000   -0.0000    0.0000    0.0000
       77 PO2    3px        0.0000   -0.0000   -0.0000    0.0000    0.0000    0.0000   -0.0000   -0.0000    0.0000    0.0000
       78 PO2    4px        0.0000    0.0000    0.0000   -0.0000   -0.0000   -0.0000    0.0000    0.0000   -0.0000   -0.0000
       79 PO2    5px        0.0000   -0.0000   -0.0000    0.0000    0.0000    0.0000   -0.0000   -0.0000   -0.0001    0.0000
       80 PO2    6px        0.0000   -0.0000   -0.0000    0.0000    0.0000    0.0000   -0.0000   -0.0000   -0.0004    0.0004
       81 PO2    7px        0.0000   -0.0000    0.0000    0.0000   -0.0000   -0.0000    0.0000   -0.0000   -0.0000    0.0000
       82 PO2    2py       -0.0000   -0.0000    0.0000    0.0000    0.0000    0.0000    0.0000   -0.0000   -0.0000    0.0000
       83 PO2    3py       -0.0000   -0.0000    0.0000    0.0000   -0.0000    0.0000    0.0000   -0.0000   -0.0000    0.0000
       84 PO2    4py        0.0000    0.0000   -0.0000   -0.0000    0.0000   -0.0000   -0.0000    0.0000    0.0000    0.0000
       85 PO2    5py        0.0000    0.0000   -0.0000   -0.0000    0.0000   -0.0000   -0.0000   -0.0000   -0.0000   -0.0000
       86 PO2    6py        0.0000    0.0000   -0.0000   -0.0000    0.0000   -0.0000   -0.0000    0.0000    0.0000   -0.0000
       87 PO2    7py        0.0000   -0.0000    0.0000   -0.0000   -0.0000    0.0000   -0.0000   -0.0000   -0.0000   -0.0000
       88 PO2    2pz       -0.0000   -0.0000    0.0000   -0.0000   -0.0000    0.0000   -0.0000    0.0000    0.0000   -0.0000
       89 PO2    3pz       -0.0000   -0.0000    0.0000   -0.0000    0.0000    0.0000   -0.0000    0.0000    0.0000   -0.0000
       90 PO2    4pz        0.0000    0.0000   -0.0000    0.0000    0.0000   -0.0000    0.0000   -0.0000    0.0000   -0.0000
       91 PO2    5pz        0.0000    0.0000   -0.0000    0.0000   -0.0000   -0.0000    0.0000    0.0000    0.0000   -0.0000
       92 PO2    6pz        0.0000    0.0000   -0.0000    0.0000   -0.0000   -0.0000    0.0000   -0.0000   -0.0000   -0.0000
       93 PO2    7pz       -0.0000    0.0000    0.0000   -0.0000    0.0000   -0.0000    0.0000    0.0000   -0.0000   -0.0000
       94 PO2    3d2-       0.4680    0.0000   -0.0000    0.0000   -0.0000    0.4145    0.5729    0.0000    0.0000   -0.0000
       95 PO2    4d2-       0.0000    0.0000   -0.0000   -0.0000    0.0000   -0.0000   -0.0000    0.0000    0.0000   -0.0000
[...]
      104 PO2    5d0        0.0000   -0.0000   -0.0286   -0.0000    0.0000    0.0793    0.0561    0.0000   -0.0000
      105 PO2    6d0        0.0000   -0.0000    0.0113   -0.0000    0.0000    0.0125   -0.1196   -0.0000    0.0000
      106 PO2    3d1+       0.0000    0.0001   -0.0000   -0.0000   -0.0001   -0.0000    0.0000   -0.0001   -0.0000
      107 PO2    4d1+       0.0003    0.0016   -0.0000   -0.0004   -0.0020    0.0000   -0.0000   -0.0012   -0.0003
      108 PO2    5d1+       0.0159    0.0757   -0.0000   -0.0140   -0.0700    0.0000    0.0000   -0.0500   -0.0110
      109 PO2    6d1+      -0.0094   -0.0699    0.0000    0.0027    0.0101   -0.0000   -0.0000    0.1977    0.0426
      110 PO2    3d2+      -0.0000    0.0000    0.0001    0.0000    0.0000   -0.0003   -0.0001    0.0000    0.0000
      111 PO2    4d2+      -0.0000    0.0000    0.0018    0.0000   -0.0000   -0.0055   -0.0027   -0.0000    0.0000
      112 PO2    5d2+      -0.0000    0.0000    0.0504    0.0000   -0.0000   -0.1347   -0.0974   -0.0000    0.0000
      113 PO2    6d2+       0.0000   -0.0000   -0.0285    0.0000   -0.0000   -0.0237    0.1543    0.0000   -0.0000
      114 PO2    4f3-      -0.0010    0.0002   -0.0000    0.0011   -0.0002    0.0000    0.0000   -0.0003    0.0014
      115 PO2    5f3-       0.0186   -0.0047    0.0000   -0.0102    0.0018    0.0000   -0.0000    0.0101   -0.0460
      116 PO2    4f2-      -0.0000   -0.0000    0.0000   -0.0000   -0.0000   -0.0000    0.0000   -0.0000   -0.0000
      117 PO2    5f2-       0.0000    0.0000   -0.0013    0.0000    0.0000   -0.0002   -0.0009   -0.0000   -0.0000
      118 PO2    4f1-       0.0002   -0.0001    0.0000   -0.0003    0.0001   -0.0000   -0.0000    0.0001   -0.0004
      119 PO2    5f1-      -0.0025   -0.0004   -0.0000    0.0048   -0.0019   -0.0000    0.0000   -0.0012    0.0098
      120 PO2    4f0        0.0001    0.0006   -0.0000   -0.0002   -0.0007    0.0000    0.0000   -0.0009   -0.0002
      121 PO2    5f0       -0.0012   -0.0110    0.0000    0.0027    0.0078   -0.0000   -0.0000    0.0271    0.0051
      122 PO2    4f1+      -0.0000    0.0000    0.0005    0.0000   -0.0000   -0.0016   -0.0015    0.0000    0.0000
      123 PO2    5f1+       0.0000   -0.0000   -0.0039    0.0000   -0.0000    0.0065    0.0331    0.0000   -0.0000
      124 PO2    4f2+      -0.0002   -0.0008    0.0000    0.0002    0.0009   -0.0000   -0.0000    0.0011    0.0002
      125 PO2    5f2+       0.0042    0.0176   -0.0000   -0.0010   -0.0071    0.0000   -0.0000   -0.0381   -0.0089
      126 PO2    4f3+       0.0000    0.0000   -0.0006   -0.0000    0.0000    0.0020    0.0018    0.0000   -0.0000
      127 PO2    5f3+      -0.0000    0.0000    0.0096   -0.0000    0.0000   -0.0076   -0.0393   -0.0000    0.0000
      128 PO2    5g4-      -0.0031    0.0007   -0.0000    0.0006   -0.0000   -0.0000    0.0000   -0.0011    0.0049
      129 PO2    5g3-      -0.0000   -0.0000    0.0000    0.0000    0.0000   -0.0001    0.0001    0.0000    0.0000
      130 PO2    5g2-       0.0011   -0.0001    0.0000    0.0001   -0.0002    0.0000   -0.0000    0.0003   -0.0017
      131 PO2    5g1-       0.0000    0.0000    0.0000   -0.0000   -0.0000    0.0000    0.0000   -0.0000   -0.0000
      132 PO2    5g0       -0.0000   -0.0000   -0.0003    0.0000   -0.0000   -0.0010    0.0003   -0.0000    0.0000
      133 PO2    5g1+       0.0005    0.0023   -0.0000    0.0000    0.0003    0.0000   -0.0000   -0.0039   -0.0008
      134 PO2    5g2+       0.0000   -0.0000    0.0005   -0.0000    0.0000    0.0015   -0.0005    0.0000   -0.0000
      135 PO2    5g3+      -0.0005   -0.0022    0.0000    0.0002    0.0000    0.0000    0.0000    0.0036    0.0008
      136 PO2    5g4+      -0.0000   -0.0000   -0.0006    0.0000   -0.0000   -0.0016    0.0003   -0.0000    0.0000
--
 
 
++    Molecular charges:
      ------------------
 
      Mulliken charges per centre and basis function type
      ---------------------------------------------------
 
                PO1     PO2   
      1s       2.0000  2.0000
      2s       2.0000  2.0000
      2px      2.0000  2.0000
      2pz      2.0000  2.0000
      2py      2.0000  2.0000
      3s       2.0000  2.0000
      3px      2.0000  2.0000
      3pz      2.0000  2.0000
      3py      2.0000  2.0000
      4s       2.0000  2.0000
      3d2+     2.0000  2.0000
      3d1+     2.0000  2.0000
      3d0      2.0000  2.0000
      3d1-     2.0000  2.0000
      3d2-     2.0000  2.0000
      4px      2.0000  2.0000
      4pz      2.0000  2.0000
      4py      2.0000  2.0000
      5s       2.0004  2.0004
      4d2+     2.0000  2.0000
      4d1+     2.0000  2.0000
      4d0      2.0000  2.0000
      4d1-     2.0000  2.0000
      4d2-     2.0000  2.0000
      5px      1.9997  1.9997
      5pz      2.0000  2.0000
      5py      2.0001  2.0001
      6s       1.8913  1.8913
      4f3+     2.0000  2.0000
      4f2+     2.0000  2.0000
      4f1+     2.0000  2.0000
      4f0      2.0000  2.0000
      4f1-     2.0000  2.0000
      4f2-     2.0000  2.0000
      4f3-     2.0000  2.0000
      5d2+     1.9894  1.9894
      5d1+     1.9953  1.9953
      5d0      1.9964  1.9964
      5d1-     1.9994  1.9994
      5d2-     1.9956  1.9956
      6px      1.0682  1.0682
      6pz      1.0091  1.0091
      6py      1.9526  1.9526
      7s       0.0057  0.0057
      5f3+     0.0032  0.0032
      5f2+     0.0032  0.0032
      5f1+     0.0018  0.0018
      5f0      0.0016  0.0016
      5f1-     0.0004  0.0004
      5f2-     0.0003  0.0003
      5f3-     0.0056  0.0056
      6d2+     0.0110  0.0110
      6d1+     0.0439  0.0439
      6d0      0.0022  0.0022
      6d1-     0.0002  0.0002
      6d2-     0.0345  0.0345
      7px      0.0296  0.0296
      7pz     -0.0093 -0.0093
      7py     -0.0345 -0.0345
      5g4+     0.0006  0.0006
      5g3+     0.0004  0.0004
      5g2+     0.0003  0.0003
      5g1+     0.0005  0.0005
      5g0      0.0002  0.0002
      5g1-     0.0000  0.0000
      5g2-     0.0001  0.0001
      5g3-     0.0001  0.0001
      5g4-     0.0009  0.0009
      Total   84.0000 84.0000
 
      N-E      0.0000 -0.0000
 
      Total electronic charge=  168.000000
 
      Total            charge=   -0.000000
 
      Mulliken Bond Order analysis
      ----------------------------
      Only bonds with order larger than 0.500 are printed
 
        Atom A        Atom B        Bond Order
        PO1           PO2             2.007
 
--
 
 
      Input file to MOLDEN was generated!
 
 
++    Static properties:
      ------------------
 
 
      LoProp Charges per center
 

                   PO1      PO2   
      Nuclear     84.0000  84.0000
      Electronic -84.0000 -84.0000
 
      Total        0.0000  -0.0000
--
 
 
++    Natural Bond Order analysis
      ---------------------------
      Based on LoProp computed density
      -------------------------------------------------------------------------------------
      Atom A       Atom B       Bond Order
        PO1          PO2            0.788
      -------------------------------------------------------------------------------------
      NBO located      1.577 electrons involved in    1 bonds.
      NBO located      0.930 non-bonded electrons on atom PO1       
      NBO located      0.989 non-bonded electrons on atom PO1       
      NBO located      0.995 non-bonded electrons on atom PO1       
      NBO located      0.995 non-bonded electrons on atom PO1       
      NBO located      0.993 non-bonded electrons on atom PO1       
      NBO located      0.997 non-bonded electrons on atom PO1       
      NBO located      0.999 non-bonded electrons on atom PO1       
      NBO located      0.999 non-bonded electrons on atom PO1       
      NBO located      0.999 non-bonded electrons on atom PO1       
      NBO located      1.000 non-bonded electrons on atom PO1       
      NBO located      1.000 non-bonded electrons on atom PO1       
      NBO located      1.000 non-bonded electrons on atom PO1       
      NBO located      1.000 non-bonded electrons on atom PO1       
      NBO located      1.000 non-bonded electrons on atom PO1       
      NBO located      1.000 non-bonded electrons on atom PO1       
      NBO located      1.000 non-bonded electrons on atom PO1       
      NBO located      1.000 non-bonded electrons on atom PO1       
      NBO located      1.000 non-bonded electrons on atom PO1       
      NBO located      1.000 non-bonded electrons on atom PO1       
      NBO located      1.000 non-bonded electrons on atom PO1       
      NBO located      1.000 non-bonded electrons on atom PO1       
      NBO located      1.000 non-bonded electrons on atom PO1       
      NBO located      1.000 non-bonded electrons on atom PO1       
      NBO located      1.000 non-bonded electrons on atom PO1       
      NBO located      1.000 non-bonded electrons on atom PO1       
      NBO located      1.000 non-bonded electrons on atom PO1       
      NBO located      1.000 non-bonded electrons on atom PO1       
      NBO located      1.000 non-bonded electrons on atom PO1       
      NBO located      1.000 non-bonded electrons on atom PO1       
      NBO located      1.000 non-bonded electrons on atom PO1       
      NBO located      1.000 non-bonded electrons on atom PO1       
      NBO located      1.000 non-bonded electrons on atom PO1       
      NBO located      1.000 non-bonded electrons on atom PO1       
      NBO located      1.000 non-bonded electrons on atom PO1       
      NBO located      1.000 non-bonded electrons on atom PO1       
      NBO located      1.000 non-bonded electrons on atom PO1       
      NBO located      1.000 non-bonded electrons on atom PO1       
      NBO located      1.000 non-bonded electrons on atom PO1       
      NBO located      1.000 non-bonded electrons on atom PO1       
      NBO located      1.000 non-bonded electrons on atom PO1       
      NBO located      0.930 non-bonded electrons on atom PO2       
      NBO located      0.989 non-bonded electrons on atom PO2       
      NBO located      0.995 non-bonded electrons on atom PO2       
      NBO located      0.995 non-bonded electrons on atom PO2       
      NBO located      0.993 non-bonded electrons on atom PO2       
      NBO located      0.997 non-bonded electrons on atom PO2       
      NBO located      0.999 non-bonded electrons on atom PO2       
      NBO located      0.999 non-bonded electrons on atom PO2       
      NBO located      0.999 non-bonded electrons on atom PO2       
      NBO located      1.000 non-bonded electrons on atom PO2       
      NBO located      1.000 non-bonded electrons on atom PO2       
      NBO located      1.000 non-bonded electrons on atom PO2       
      NBO located      1.000 non-bonded electrons on atom PO2       
      NBO located      1.000 non-bonded electrons on atom PO2       
      NBO located      1.000 non-bonded electrons on atom PO2       
      NBO located      1.000 non-bonded electrons on atom PO2       
      NBO located      1.000 non-bonded electrons on atom PO2       
      NBO located      1.000 non-bonded electrons on atom PO2       
      NBO located      1.000 non-bonded electrons on atom PO2       
      NBO located      1.000 non-bonded electrons on atom PO2       
      NBO located      1.000 non-bonded electrons on atom PO2       
      NBO located      1.000 non-bonded electrons on atom PO2       
      NBO located      1.000 non-bonded electrons on atom PO2       
      NBO located      1.000 non-bonded electrons on atom PO2       
      NBO located      1.000 non-bonded electrons on atom PO2       
      NBO located      1.000 non-bonded electrons on atom PO2       
      NBO located      1.000 non-bonded electrons on atom PO2       
      NBO located      1.000 non-bonded electrons on atom PO2       
      NBO located      1.000 non-bonded electrons on atom PO2       
      NBO located      1.000 non-bonded electrons on atom PO2       
      NBO located      1.000 non-bonded electrons on atom PO2       
      NBO located      1.000 non-bonded electrons on atom PO2       
      NBO located      1.000 non-bonded electrons on atom PO2       
      NBO located      1.000 non-bonded electrons on atom PO2       
      NBO located      1.000 non-bonded electrons on atom PO2       
      NBO located      1.000 non-bonded electrons on atom PO2       
      NBO located      1.000 non-bonded electrons on atom PO2       
      NBO located      1.000 non-bonded electrons on atom PO2       
      NBO located      1.000 non-bonded electrons on atom PO2       
      NBO located      1.000 non-bonded electrons on atom PO2       
      The remaining    2.480 electrons are to be considered as diffuse
--
 

      Expectation values of various operators
 
++    Molecular properties:
      ---------------------
 


       0-th cartesian moments: origin at (  0.00000000,  0.00000000,  0.00000000)
      ----------------------------------------------------------------------------
 Total electronic          -168.00000000
 Total nuclear              168.00000000
 Total                       -0.00000000


       1-st cartesian moments: origin at (  0.00000000,  0.00000000,  0.00000000)
      ----------------------------------------------------------------------------
 Component                             X               Y               Z
 Total electronic          -317.47398915      0.00000000      0.00000000
 Total nuclear              317.47398915      0.00000000      0.00000000
 Total                       -0.00000000      0.00000000      0.00000000
      ----------------------------------------------------------------------------
      Total                  -0.00000000      0.00000000      0.00000000   debye


       2-nd cartesian moments: origin at (  1.88972613,  0.00000000,  0.00000000)
      ----------------------------------------------------------------------------
 Component                            XX              XY              XZ              YY              YZ              ZZ
 Total electronic          -651.04282194      0.00000000      0.00000000    -53.32951765     -1.45506576    -46.91783033
 Total nuclear              599.93889160      0.00000000      0.00000000      0.00000000      0.00000000      0.00000000
 Total                      -51.10393034      0.00000000      0.00000000    -53.32951765     -1.45506576    -46.91783033



      Cartesian  2-pole moment: origin at (  1.88972613,  0.00000000,  0.00000000)
      ----------------------------------------------------------------------------
 Component                            XX              XY              XZ              YY              YZ              ZZ
 Total electronic          -600.91914795      0.00000000      0.00000000    295.65080849     -2.18259864    305.26833947
 Total nuclear              599.93889160      0.00000000      0.00000000   -299.96944580      0.00000000   -299.96944580
 Total                       -0.98025635      0.00000000      0.00000000     -4.31863731     -2.18259864      5.29889367

--
 
 
++ Statistics and timing
   ---------------------
 
  - - - - - - - - - - - - - - - - - - - - - - - - - - - - - - - - - -
     Part of the program                              CPU    fraction
  - - - - - - - - - - - - - - - - - - - - - - - - - - - - - - - - - -
  1) Input processing                         :      0.02      0.01
  2) Wave function optimization               :      2.66      0.83
    b ) contraction with integrals            :      2.37      0.74
    c ) acceleration of convergence           :      0.00      0.00
          recursive BFGS         (QNR steps)  :      0.00      0.00
    d ) solution to Roothaan-Hall equations   :      0.01      0.00
    e ) rotate MOs C with U       (QNR steps) :      0.02      0.01
          U=exp(kap)                          :      0.03      0.01
    f ) transformation to new reference       :      0.07      0.02
    g ) s-GEK/RVO microiterations             :      0.00      0.00
    h ) transf. Fck Mat. with C  (QNR steps)  :      0.01      0.00
    i ) other calculations                    :      0.00      0.00
  3) Final processing (generation of outputs) :      0.40      0.12
 
     T O T A L                                :      3.21
  - - - - - - - - - - - - - - - - - - - - - - - - - - - - - - - - - -
--
 
 
      Input file to MOLDEN was generated!
 
++ I/O STATISTICS
 
  I. General I/O information
  - - - - - - - - - - - - - - - - - - - - - - - - - - - - - - - - - - - - - - - - - - -
  Unit  Name          Flsize      Write/Read            MBytes           Write/Read
                      (MBytes)       Calls              In/Out           Time, sec.
  - - - - - - - - - - - - - - - - - - - - - - - - - - - - - - - - - - - - - - - - - - -
   1  RUNFILE           1.07 .     896/   10652 .      9.1/     76.8 .       0/       0
   2  ORDINT          196.78 .       1/    7871 .      0.0/   1967.5 .       0/       0
   3  DNSMAT            0.36 .       5/     110 .      0.4/      7.8 .       0/       0
   4  DVXCDR            0.36 .       5/       0 .      0.4/      0.0 .       0/       0
   5  TWOHAM            0.36 .       5/      15 .      0.4/      1.1 .       0/       0
   6  GRADIENT          0.00 .       0/       0 .      0.0/      0.0 .       0/       0
   7  SODGRAD           0.00 .       0/       0 .      0.0/      0.0 .       0/       0
   8  SOXVEC            0.00 .       0/       0 .      0.0/      0.0 .       0/       0
   9  SODELTA           0.00 .       0/       0 .      0.0/      0.0 .       0/       0
  10  SOYVEC            0.00 .       0/       0 .      0.0/      0.0 .       0/       0
  11  ONEINT            3.70 .       2/     413 .      1.4/    195.2 .       0/       0
  - - - - - - - - - - - - - - - - - - - - - - - - - - - - - - - - - - - - - - - - - - -
   *  TOTAL           202.62 .     914/   19061 .     11.6/   2248.4 .       0/       0
  - - - - - - - - - - - - - - - - - - - - - - - - - - - - - - - - - - - - - - - - - - -
 
  II. I/O Access Patterns
  - - - - - - - - - - - - - - - - - - - -
  Unit  Name               % of random
                         Write/Read calls
  - - - - - - - - - - - - - - - - - - - -
   1  RUNFILE             28.6/  11.8
   2  ORDINT             100.0/   0.1
   3  DNSMAT              80.0/ 100.0
   4  DVXCDR              80.0/   0.0
   5  TWOHAM              80.0/ 100.0
   6  GRADIENT             0.0/   0.0
   7  SODGRAD              0.0/   0.0
   8  SOXVEC               0.0/   0.0
   9  SODELTA              0.0/   0.0
  10  SOYVEC               0.0/   0.0
  11  ONEINT             100.0/  22.3
  - - - - - - - - - - - - - - - - - - - -
--
 ###############################################################################
 ###############################################################################
 ###                                                                         ###
 ###                                                                         ###
 ###    WARNING: RunFile label nBas                                          ###
 ###    was used       79 times                                              ###
 ###                                                                         ###
 ###                                                                         ###
 ###############################################################################
 ###############################################################################
--- Stop Module: scf at Fri Jan 23 22:03:43 2026 /rc=_RC_ALL_IS_WELL_ ---
*** files: Po2_RHF.LprOrb Po2_RHF.LoProp.molden Po2_RHF.scf.molden Po2_RHF.ScfOrb Po2_RHF.scf.h5 xmldump
    saved to directory /dodrio/scratch/projects/starting_2025_097/autoCAS4HE_built/autoCAS4HE/tests/molcas/Po2_RHF_benchmark/Po2_RHF
--- Module scf spent 6 seconds ---

.##################.
.# Happy landing! #.
.##################.

    Timing: Wall=134.91 User=111.64 System=4.75

End time: Fri Jan 23 10:03:43 PM CET 2026
